
     Program PWSCF v.6.4.1 starts on 16Jul2020 at 13:41:16 

     This program is part of the open-source Quantum ESPRESSO suite
     for quantum simulation of materials; please cite
         "P. Giannozzi et al., J. Phys.:Condens. Matter 21 395502 (2009);
         "P. Giannozzi et al., J. Phys.:Condens. Matter 29 465901 (2017);
          URL http://www.quantum-espresso.org", 
     in publications or presentations arising from this work. More details at
     http://www.quantum-espresso.org/quote

     Parallel version (MPI), running on   176 processors

     MPI processes distributed on     4 nodes
     K-points division:     npool     =       2
     R & G space division:  proc/nbgrp/npool/nimage =      88
     Waiting for input...
     Reading input from standard input

     Current dimensions of program PWSCF are:
     Max number of different atomic species (ntypx) = 10
     Max number of k-points (npk) =  40000
     Max angular momentum in pseudopotentials (lmaxx) =  3

     IMPORTANT: XC functional enforced from input :
     Exchange-correlation      = PBE ( 1  4  3  4 0 0)
     Any further DFT definition will be discarded
     Please, verify this is what you really want


     --------------------------------------------
     Parameters for DFT-D3 Dispersion Correction:
     --------------------------------------------
       Reference C6 values for interpolation: 

         atom   Coordination number   C6
         H          0.912             6.05
         H          0.000            15.18
         C          0.000            98.23
         C          0.987            86.49
         C          1.998            58.72
         C          2.999            51.56
         C          3.984            36.41
         N          0.000            50.54
         N          0.994            44.25
         N          2.014            39.35
         N          2.990            31.16
         O          0.000            31.01
         O          0.993            25.63
         O          1.989            20.74

       Values used:

         atom   Coordination number  R0_AB[au]  C6      C8
         O          1.077            2.345     25.49    514.47
         O          1.077            2.345     25.49    514.47
         O          1.077            2.345     25.49    514.47
         O          1.077            2.345     25.49    514.47
         O          1.074            2.345     25.50    514.62
         O          1.074            2.345     25.50    514.62
         O          1.074            2.345     25.50    514.62
         O          1.074            2.345     25.50    514.62
         O          1.090            2.345     25.47    513.98
         O          1.090            2.345     25.47    513.98
         O          1.090            2.345     25.47    513.98
         O          1.090            2.345     25.47    513.98
         O          2.011            2.345     20.81    420.00
         O          2.011            2.345     20.81    420.00
         O          2.011            2.345     20.81    420.00
         O          2.011            2.345     20.81    420.00
         N          4.070            2.478     31.16    687.49
         N          4.070            2.478     31.16    687.49
         N          4.070            2.478     31.16    687.49
         N          4.070            2.478     31.16    687.49
         N          3.086            2.478     31.24    689.24
         N          3.086            2.478     31.24    689.24
         N          3.086            2.478     31.24    689.24
         N          3.086            2.478     31.24    689.24
         C          3.081            2.750     50.99   1474.75
         C          3.081            2.750     50.99   1474.75
         C          3.081            2.750     50.99   1474.75
         C          3.081            2.750     50.99   1474.75
         C          4.098            2.750     36.52   1056.35
         C          4.098            2.750     36.52   1056.35
         C          4.098            2.750     36.52   1056.35
         C          4.098            2.750     36.52   1056.35
         C          4.116            2.750     36.51   1055.91
         C          4.116            2.750     36.51   1055.91
         C          4.116            2.750     36.51   1055.91
         C          4.116            2.750     36.51   1055.91
         C          3.073            2.750     51.03   1475.96
         C          3.073            2.750     51.03   1475.96
         C          3.073            2.750     51.03   1475.96
         C          3.073            2.750     51.03   1475.96
         H          1.010            2.062      6.17     74.61
         H          1.010            2.062      6.17     74.61
         H          1.010            2.062      6.17     74.61
         H          1.010            2.062      6.17     74.61
         H          1.015            2.062      6.17     74.56
         H          1.015            2.062      6.17     74.56
         H          1.015            2.062      6.17     74.56
         H          1.015            2.062      6.17     74.56
         H          1.017            2.062      6.17     74.55
         H          1.017            2.062      6.17     74.55
         H          1.017            2.062      6.17     74.55
         H          1.017            2.062      6.17     74.55
         H          1.016            2.062      6.17     74.55
         H          1.016            2.062      6.17     74.55
         H          1.016            2.062      6.17     74.55
         H          1.016            2.062      6.17     74.55
         H          1.010            2.062      6.17     74.61
         H          1.010            2.062      6.17     74.61
         H          1.010            2.062      6.17     74.61
         H          1.010            2.062      6.17     74.61
         H          1.010            2.062      6.17     74.61
         H          1.010            2.062      6.17     74.61
         H          1.010            2.062      6.17     74.61
         H          1.010            2.062      6.17     74.61
         H          1.008            2.062      6.17     74.63
         H          1.008            2.062      6.17     74.63
         H          1.008            2.062      6.17     74.63
         H          1.008            2.062      6.17     74.63
         H          1.008            2.062      6.17     74.63
         H          1.008            2.062      6.17     74.63
         H          1.008            2.062      6.17     74.63
         H          1.008            2.062      6.17     74.63
         H          1.005            2.062      6.18     74.67
         H          1.005            2.062      6.18     74.67
         H          1.005            2.062      6.18     74.67
         H          1.005            2.062      6.18     74.67
         H          1.005            2.062      6.18     74.67
         H          1.005            2.062      6.18     74.67
         H          1.005            2.062      6.18     74.67
         H          1.005            2.062      6.18     74.67

         Molecular C6 ( Ry / a.u.^6 ) =    106714.90


     Subspace diagonalization in iterative solution of the eigenvalue problem:
     one sub-group per band group will be used
     scalapack distributed-memory algorithm (size of sub-group:  9*  9 procs)

     Message from routine setup:
     DEPRECATED: symmetry with ibrav=0, use correct ibrav instead
 
     Parallelization info
     --------------------
     sticks:   dense  smooth     PW     G-vecs:    dense   smooth      PW
     Min          56      28      7                 4708     1664     235
     Max          57      29      8                 4714     1669     246
     Sum        4941    2477    685               414565   146649   21103
 


     bravais-lattice index     =            0
     lattice parameter (alat)  =      10.5503  a.u.
     unit-cell volume          =    4290.0263 (a.u.)^3
     number of atoms/cell      =           80
     number of atomic types    =            4
     number of electrons       =       240.00
     number of Kohn-Sham states=          120
     kinetic-energy cutoff     =      40.0000  Ry
     charge density cutoff     =     320.0000  Ry
     convergence threshold     =      1.0E-06
     mixing beta               =       0.7000
     number of iterations used =            8  plain     mixing
     Exchange-correlation      = PBE ( 1  4  3  4 0 0)
     nstep                     =           50


     celldm(1)=  10.550341  celldm(2)=   0.000000  celldm(3)=   0.000000
     celldm(4)=   0.000000  celldm(5)=   0.000000  celldm(6)=   0.000000

     crystal axes: (cart. coord. in units of alat)
               a(1) = (   1.000000   0.000000   0.000000 )  
               a(2) = (   0.000000   1.744223   0.000000 )  
               a(3) = (   0.000000   0.000000   2.094394 )  

     reciprocal axes: (cart. coord. in units 2 pi/alat)
               b(1) = (  1.000000  0.000000  0.000000 )  
               b(2) = (  0.000000  0.573321  0.000000 )  
               b(3) = (  0.000000  0.000000  0.477465 )  


     PseudoPot. # 1 for C  read from file:
     /p/home/rwexler/PSPs/Glycine/C.UPF
     MD5 check sum: d1aef80898a10debaa0f26306b886e00
     Pseudo is Ultrasoft + core correction, Zval =  4.0
     Generated by new atomic code, or converted to UPF format
     Using radial grid of  721 points,  4 beta functions with: 
                l(1) =   0
                l(2) =   0
                l(3) =   1
                l(4) =   1
     Q(r) pseudized with  8 coefficients,  rinner =    1.100   1.100   1.100


     PseudoPot. # 2 for H  read from file:
     /p/home/rwexler/PSPs/Glycine/H.UPF
     MD5 check sum: 761ae9a214b05c3daf00ab9f6b793d6f
     Pseudo is Ultrasoft, Zval =  1.0
     Generated by new atomic code, or converted to UPF format
     Using radial grid of  615 points,  2 beta functions with: 
                l(1) =   0
                l(2) =   0
     Q(r) pseudized with  8 coefficients,  rinner =    0.700

     PseudoPot. # 3 for N  read from file:
     /p/home/rwexler/PSPs/Glycine/N.UPF
     MD5 check sum: 95339753478d7afb44899504a8723017
     Pseudo is Ultrasoft + core correction, Zval =  5.0
     Generated by new atomic code, or converted to UPF format
     Using radial grid of  729 points,  4 beta functions with: 
                l(1) =   0
                l(2) =   0
                l(3) =   1
                l(4) =   1
     Q(r) pseudized with  8 coefficients,  rinner =    0.900   0.900   0.900


     PseudoPot. # 4 for O  read from file:
     /p/home/rwexler/PSPs/Glycine/O.UPF
     MD5 check sum: 734c27235a0248c51dbae37a1fbe46ec
     Pseudo is Ultrasoft + core correction, Zval =  6.0
     Generated by new atomic code, or converted to UPF format
     Using radial grid of  737 points,  5 beta functions with: 
                l(1) =   0
                l(2) =   0
                l(3) =   1
                l(4) =   1
                l(5) =   2
     Q(r) pseudized with  8 coefficients,  rinner =    0.900   0.900   0.900
                                                       0.900   0.900

     atomic species   valence    mass     pseudopotential
        C              4.00    12.01070     C ( 1.00)
        H              1.00     1.00790     H ( 1.00)
        N              5.00    14.00670     N ( 1.00)
        O              6.00    15.99940     O ( 1.00)

      4 Sym. Ops. (no inversion) found ( 3 have fractional translation)



   Cartesian axes

     site n.     atom                  positions (alat units)
         1           O   tau(   1) = (   0.5100700   1.6663439   2.0902467  )
         2           O   tau(   2) = (   0.9899300   0.0778796   1.0430499  )
         3           O   tau(   3) = (   0.4899300   0.7942322   1.0513437  )
         4           O   tau(   4) = (   0.0100700   0.9499913   0.0041469  )
         5           O   tau(   5) = (   0.6221700   0.3070706   2.0844034  )
         6           O   tau(   6) = (   0.8778300   1.4371529   1.0372065  )
         7           O   tau(   7) = (   0.3778300   1.1791823   1.0571870  )
         8           O   tau(   8) = (   0.1221700   0.5650412   0.0099903  )
         9           O   tau(   9) = (   0.3913400   0.1838935   0.4979630  )
        10           O   tau(  10) = (   0.1086600   1.5603300   1.5451598  )
        11           O   tau(  11) = (   0.6086600   1.0560052   0.5492338  )
        12           O   tau(  12) = (   0.8913400   0.6882182   1.5964306  )
        13           O   tau(  13) = (   0.7977500   0.4762776   0.8114728  )
        14           O   tau(  14) = (   0.7022500   1.2679459   1.8586696  )
        15           O   tau(  15) = (   0.2022500   1.3483893   0.2357240  )
        16           O   tau(  16) = (   0.2977500   0.3958341   1.2829208  )
        17           N   tau(  17) = (   0.9184700   0.2721861   0.3636496  )
        18           N   tau(  18) = (   0.5815300   1.4720374   1.4108464  )
        19           N   tau(  19) = (   0.0815300   1.1442977   0.6835472  )
        20           N   tau(  20) = (   0.4184700   0.5999257   1.7307440  )
        21           N   tau(  21) = (   0.3926300   1.6306222   0.7743601  )
        22           N   tau(  22) = (   0.1073700   0.1136013   1.8215569  )
        23           N   tau(  23) = (   0.6073700   0.7585105   0.2728367  )
        24           N   tau(  24) = (   0.8926300   0.9857130   1.3200335  )
        25           C   tau(  25) = (   0.6286600   0.0995428   0.0727173  )
        26           C   tau(  26) = (   0.8713400   1.6446806   1.1199142  )
        27           C   tau(  27) = (   0.3713400   0.9716546   0.9744794  )
        28           C   tau(  28) = (   0.1286600   0.7725689   2.0216762  )
        29           C   tau(  29) = (   0.8100300   0.0456463   0.2727110  )
        30           C   tau(  30) = (   0.6899700   1.6985771   1.3199078  )
        31           C   tau(  31) = (   0.1899700   0.9177581   0.7744858  )
        32           C   tau(  32) = (   0.3100300   0.8264654   1.8216826  )
        33           C   tau(  33) = (   0.7097900   1.6398840   0.4770610  )
        34           C   tau(  34) = (   0.7902100   0.1043394   1.5242577  )
        35           C   tau(  35) = (   0.2902100   0.7677723   0.5701359  )
        36           C   tau(  36) = (   0.2097900   0.9764512   1.6173327  )
        37           C   tau(  37) = (   0.4836800   0.0008547   0.5853202  )
        38           C   tau(  38) = (   0.0163200   1.7433688   1.6325169  )
        39           C   tau(  39) = (   0.5163200   0.8729664   0.4618766  )
        40           C   tau(  40) = (   0.9836800   0.8712570   1.5090735  )
        41           H   tau(  41) = (   0.8109700   0.3579495   0.4879728  )
        42           H   tau(  42) = (   0.6890300   1.3862740   1.5351696  )
        43           H   tau(  43) = (   0.1890300   1.2300612   0.5592240  )
        44           H   tau(  44) = (   0.3109700   0.5141622   1.6064208  )
        45           H   tau(  45) = (   0.9495100   0.3870257   0.2214821  )
        46           H   tau(  46) = (   0.5504900   1.3571978   1.2686790  )
        47           H   tau(  47) = (   0.0504900   1.2591374   0.8257147  )
        48           H   tau(  48) = (   0.4495100   0.4850860   1.8729114  )
        49           H   tau(  49) = (   0.0851600   0.2388365   0.4376235  )
        50           H   tau(  50) = (   0.4148400   1.5053870   1.4848203  )
        51           H   tau(  51) = (   0.9148400   1.1109482   0.6095733  )
        52           H   tau(  52) = (   0.5851600   0.6332752   1.6567701  )
        53           H   tau(  53) = (   0.2496200   1.7055889   0.8559158  )
        54           H   tau(  54) = (   0.2503800   0.0386346   1.9031126  )
        55           H   tau(  55) = (   0.7503800   0.8334772   0.1912810  )
        56           H   tau(  56) = (   0.7496200   0.9107462   1.2384777  )
        57           H   tau(  57) = (   0.4663500   1.4842993   0.8510359  )
        58           H   tau(  58) = (   0.0336500   0.2599242   1.8982327  )
        59           H   tau(  59) = (   0.5336500   0.6121875   0.1961609  )
        60           H   tau(  60) = (   0.9663500   1.1320359   1.2433577  )
        61           H   tau(  61) = (   0.9544000   1.6890537   0.1847046  )
        62           H   tau(  62) = (   0.5456000   0.0551698   1.2319014  )
        63           H   tau(  63) = (   0.0456000   0.8169419   0.8624923  )
        64           H   tau(  64) = (   0.4544000   0.9272815   1.9096890  )
        65           H   tau(  65) = (   0.6706400   1.4645373   0.3997779  )
        66           H   tau(  66) = (   0.8293600   0.2796862   1.4469747  )
        67           H   tau(  67) = (   0.3293600   0.5924255   0.6474189  )
        68           H   tau(  68) = (   0.1706400   1.1517979   1.6946157  )
        69           H   tau(  69) = (   0.8410700   1.6292443   0.6216579  )
        70           H   tau(  70) = (   0.6589300   0.1149792   1.6688548  )
        71           H   tau(  71) = (   0.1589300   0.7571325   0.4255389  )
        72           H   tau(  72) = (   0.3410700   0.9870909   1.4727356  )
        73           H   tau(  73) = (   0.8329000   0.3387980   0.9085898  )
        74           H   tau(  74) = (   0.6671000   1.4054255   1.9557866  )
        75           H   tau(  75) = (   0.1671000   1.2109097   0.1386069  )
        76           H   tau(  76) = (   0.3329000   0.5333138   1.1858037  )
        77           H   tau(  77) = (   0.6822500   0.5766751   0.8898869  )
        78           H   tau(  78) = (   0.8177500   1.1675483   1.9370838  )
        79           H   tau(  79) = (   0.3177500   1.4487869   0.1573099  )
        80           H   tau(  80) = (   0.1822500   0.2954366   1.2045066  )

     number of k points=     2
                       cart. coord. in units 2pi/alat
        k(    1) = (   0.0000000   0.0000000   0.0000000), wk =   1.0000000
        k(    2) = (  -0.5000000   0.0000000   0.0000000), wk =   1.0000000

     Dense  grid:   414565 G-vectors     FFT dimensions: (  64, 108, 128)

     Smooth grid:   146649 G-vectors     FFT dimensions: (  48,  80,  90)

     Estimated max dynamical RAM per process >      31.56 MB

     Estimated total dynamical RAM >       5.43 GB

     Initial potential from superposition of free atoms

     starting charge  239.99890, renormalised to  240.00000
     Starting wfcs are  200 randomized atomic wfcs

     total cpu time spent up to now is        1.6 secs

     Self-consistent Calculation

     iteration #  1     ecut=    40.00 Ry     beta= 0.70
     Davidson diagonalization with overlap
     ethr =  1.00E-02,  avg # of iterations =  2.0

     total cpu time spent up to now is       17.4 secs

     total energy              =    -906.97830768 Ry
     Harris-Foulkes estimate   =    -912.62416487 Ry
     estimated scf accuracy    <       8.73572796 Ry

     iteration #  2     ecut=    40.00 Ry     beta= 0.70
     Davidson diagonalization with overlap
     ethr =  3.64E-03,  avg # of iterations =  3.0

     total cpu time spent up to now is       18.7 secs

     total energy              =    -908.67405180 Ry
     Harris-Foulkes estimate   =    -911.43885937 Ry
     estimated scf accuracy    <       5.29614958 Ry

     iteration #  3     ecut=    40.00 Ry     beta= 0.70
     Davidson diagonalization with overlap
     ethr =  2.21E-03,  avg # of iterations =  3.0

     total cpu time spent up to now is       19.5 secs

     total energy              =    -909.82940095 Ry
     Harris-Foulkes estimate   =    -909.99703841 Ry
     estimated scf accuracy    <       0.32569025 Ry

     iteration #  4     ecut=    40.00 Ry     beta= 0.70
     Davidson diagonalization with overlap
     ethr =  1.36E-04,  avg # of iterations =  3.0

     total cpu time spent up to now is       20.5 secs

     total energy              =    -909.89931715 Ry
     Harris-Foulkes estimate   =    -909.94375325 Ry
     estimated scf accuracy    <       0.09237755 Ry

     iteration #  5     ecut=    40.00 Ry     beta= 0.70
     Davidson diagonalization with overlap
     ethr =  3.85E-05,  avg # of iterations =  3.5

     total cpu time spent up to now is       21.4 secs

     total energy              =    -909.91829733 Ry
     Harris-Foulkes estimate   =    -909.92826565 Ry
     estimated scf accuracy    <       0.02260737 Ry

     iteration #  6     ecut=    40.00 Ry     beta= 0.70
     Davidson diagonalization with overlap
     ethr =  9.42E-06,  avg # of iterations =  3.5

     total cpu time spent up to now is       22.2 secs

     total energy              =    -909.92293095 Ry
     Harris-Foulkes estimate   =    -909.92355242 Ry
     estimated scf accuracy    <       0.00128695 Ry

     iteration #  7     ecut=    40.00 Ry     beta= 0.70
     Davidson diagonalization with overlap
     ethr =  5.36E-07,  avg # of iterations =  4.0

     total cpu time spent up to now is       23.1 secs

     total energy              =    -909.92324170 Ry
     Harris-Foulkes estimate   =    -909.92341676 Ry
     estimated scf accuracy    <       0.00040697 Ry

     iteration #  8     ecut=    40.00 Ry     beta= 0.70
     Davidson diagonalization with overlap
     ethr =  1.70E-07,  avg # of iterations =  3.5

     total cpu time spent up to now is       24.2 secs

     total energy              =    -909.92332522 Ry
     Harris-Foulkes estimate   =    -909.92333739 Ry
     estimated scf accuracy    <       0.00002919 Ry

     iteration #  9     ecut=    40.00 Ry     beta= 0.70
     Davidson diagonalization with overlap
     ethr =  1.22E-08,  avg # of iterations =  4.0

     total cpu time spent up to now is       25.1 secs

     total energy              =    -909.92333238 Ry
     Harris-Foulkes estimate   =    -909.92333511 Ry
     estimated scf accuracy    <       0.00000657 Ry

     iteration # 10     ecut=    40.00 Ry     beta= 0.70
     Davidson diagonalization with overlap
     ethr =  2.74E-09,  avg # of iterations =  3.0

     total cpu time spent up to now is       25.9 secs

     End of self-consistent calculation

          k = 0.0000 0.0000 0.0000 ( 18365 PWs)   bands (ev):

   -19.6968 -19.6480 -19.6018 -19.5746 -19.2238 -19.2102 -19.1758 -19.1738
   -18.0350 -17.9937 -17.9152 -17.9128 -17.4022 -17.3316 -17.2815 -17.2734
   -17.0654 -17.0635 -16.8998 -16.8576 -15.7141 -15.7086 -15.6907 -15.6898
   -12.5933 -12.5689 -12.5413 -12.4923  -9.9809  -9.9179  -9.8940  -9.8910
    -7.9800  -7.9245  -7.9140  -7.7460  -7.3110  -7.2226  -7.1921  -7.1253
    -6.9344  -6.8633  -6.8512  -6.7637  -6.5085  -6.4715  -6.3304  -6.3152
    -6.2130  -6.1822  -6.1381  -6.0048  -5.9680  -5.9610  -5.8330  -5.5088
    -5.0108  -4.8887  -4.8828  -4.8545  -4.6644  -4.6291  -4.6210  -4.5254
    -4.4617  -4.3154  -4.2859  -4.1611  -4.0791  -3.9819  -3.9057  -3.8755
    -3.7631  -3.5997  -3.4586  -3.3215  -3.3190  -3.2119  -3.1158  -2.7729
    -2.7062  -2.6839  -2.6668  -2.6068  -2.4401  -2.3434  -2.3371  -2.2080
    -2.1596  -2.1461  -1.9817  -1.9750  -1.8635  -1.8032  -1.7423  -1.5854
    -0.2629  -0.2540  -0.1851  -0.1752  -0.0645  -0.0410   0.0947   0.1905
     0.1913   0.2055   0.2983   0.3368   0.3777   0.4408   0.5563   0.5748
     0.6032   0.6896   0.7343   0.7885   0.7974   0.8555   0.9000   1.0566

          k =-0.5000 0.0000 0.0000 ( 18330 PWs)   bands (ev):

   -19.6183 -19.6183 -19.6077 -19.6077 -19.1919 -19.1918 -19.1843 -19.1843
   -17.9844 -17.9844 -17.9498 -17.9498 -17.3869 -17.3869 -17.3269 -17.3269
   -17.0075 -17.0075 -16.9719 -16.9719 -15.7175 -15.7174 -15.6839 -15.6839
   -12.5432 -12.5432 -12.4461 -12.4461 -10.1669 -10.1669  -9.8808  -9.8808
    -7.9598  -7.9598  -7.5970  -7.5969  -7.1983  -7.1983  -7.1747  -7.1747
    -6.8202  -6.8202  -6.5524  -6.5524  -6.4756  -6.4756  -6.3982  -6.3982
    -6.2572  -6.2572  -6.1232  -6.1232  -5.8214  -5.8214  -5.7918  -5.7918
    -5.2853  -5.2853  -5.0976  -5.0976  -4.8417  -4.8417  -4.7357  -4.7357
    -4.2976  -4.2976  -4.0600  -4.0600  -3.9189  -3.9189  -3.7172  -3.7172
    -3.5799  -3.5799  -3.4916  -3.4916  -3.1113  -3.1113  -3.0198  -3.0198
    -2.6757  -2.6757  -2.5421  -2.5421  -2.3339  -2.3339  -2.2323  -2.2323
    -2.1272  -2.1272  -1.9458  -1.9458  -1.8826  -1.8826  -1.5797  -1.5797
    -0.2089  -0.2089  -0.1874  -0.1874   0.0011   0.0011   0.0364   0.0364
     0.1781   0.1781   0.2843   0.2843   0.3538   0.3538   0.4717   0.4717
     0.6997   0.6997   0.7466   0.7466   0.8282   0.8282   0.9134   0.9134

     highest occupied level (ev):     1.0566

!    total energy              =    -909.92333375 Ry
     Harris-Foulkes estimate   =    -909.92333393 Ry
     estimated scf accuracy    <       0.00000030 Ry

     The total energy is the sum of the following terms:

     one-electron contribution =    -562.51146828 Ry
     hartree contribution      =     378.50210031 Ry
     xc contribution           =    -247.60521391 Ry
     ewald contribution        =    -477.91513849 Ry
     DFT-D3 Dispersion         =      -0.39361337 Ry

     convergence has been achieved in  10 iterations

     Forces acting on atoms (cartesian axes, Ry/au):

     atom    1 type  4   force =    -0.01084844   -0.02058441   -0.00813408
     atom    2 type  4   force =     0.01084844    0.02058441   -0.00813408
     atom    3 type  4   force =     0.01084844   -0.02058441    0.00813408
     atom    4 type  4   force =    -0.01084844    0.02058441    0.00813408
     atom    5 type  4   force =     0.00073334    0.02410539   -0.00925454
     atom    6 type  4   force =    -0.00073334   -0.02410539   -0.00925454
     atom    7 type  4   force =    -0.00073334    0.02410539    0.00925454
     atom    8 type  4   force =     0.00073334   -0.02410539    0.00925454
     atom    9 type  4   force =    -0.01388468    0.01629706   -0.00716409
     atom   10 type  4   force =     0.01388468   -0.01629706   -0.00716409
     atom   11 type  4   force =     0.01388468    0.01629706    0.00716409
     atom   12 type  4   force =    -0.01388468   -0.01629706    0.00716409
     atom   13 type  4   force =     0.03277622    0.01663299   -0.07778518
     atom   14 type  4   force =    -0.03277622   -0.01663299   -0.07778518
     atom   15 type  4   force =    -0.03277622    0.01663299    0.07778518
     atom   16 type  4   force =     0.03277622   -0.01663299    0.07778518
     atom   17 type  3   force =    -0.01506530   -0.01900112   -0.01609996
     atom   18 type  3   force =     0.01506530    0.01900112   -0.01609996
     atom   19 type  3   force =     0.01506530   -0.01900112    0.01609996
     atom   20 type  3   force =    -0.01506530    0.01900112    0.01609996
     atom   21 type  3   force =     0.01497321    0.01410058   -0.02235685
     atom   22 type  3   force =    -0.01497321   -0.01410058   -0.02235685
     atom   23 type  3   force =    -0.01497321    0.01410058    0.02235685
     atom   24 type  3   force =     0.01497321   -0.01410058    0.02235685
     atom   25 type  1   force =     0.00460576   -0.00145129    0.01361809
     atom   26 type  1   force =    -0.00460576    0.00145129    0.01361809
     atom   27 type  1   force =    -0.00460576   -0.00145129   -0.01361809
     atom   28 type  1   force =     0.00460576    0.00145129   -0.01361809
     atom   29 type  1   force =    -0.00698196    0.01132460    0.00708810
     atom   30 type  1   force =     0.00698196   -0.01132460    0.00708810
     atom   31 type  1   force =     0.00698196    0.01132460   -0.00708810
     atom   32 type  1   force =    -0.00698196   -0.01132460   -0.00708810
     atom   33 type  1   force =    -0.00350211    0.02342323   -0.01680146
     atom   34 type  1   force =     0.00350211   -0.02342323   -0.01680146
     atom   35 type  1   force =     0.00350211    0.02342323    0.01680146
     atom   36 type  1   force =    -0.00350211   -0.02342323    0.01680146
     atom   37 type  1   force =     0.01406582   -0.01790619   -0.00559204
     atom   38 type  1   force =    -0.01406582    0.01790619   -0.00559204
     atom   39 type  1   force =    -0.01406582   -0.01790619    0.00559204
     atom   40 type  1   force =     0.01406582    0.01790619    0.00559204
     atom   41 type  2   force =    -0.00458499    0.00666530    0.01635591
     atom   42 type  2   force =     0.00458499   -0.00666530    0.01635591
     atom   43 type  2   force =     0.00458499    0.00666530   -0.01635591
     atom   44 type  2   force =    -0.00458499   -0.00666530   -0.01635591
     atom   45 type  2   force =     0.00320334    0.02240544   -0.01760517
     atom   46 type  2   force =    -0.00320334   -0.02240544   -0.01760517
     atom   47 type  2   force =    -0.00320334    0.02240544    0.01760517
     atom   48 type  2   force =     0.00320334   -0.02240544    0.01760517
     atom   49 type  2   force =     0.02303133   -0.00502409    0.01768704
     atom   50 type  2   force =    -0.02303133    0.00502409    0.01768704
     atom   51 type  2   force =    -0.02303133   -0.00502409   -0.01768704
     atom   52 type  2   force =     0.02303133    0.00502409   -0.01768704
     atom   53 type  2   force =    -0.04005938    0.01322712    0.02460156
     atom   54 type  2   force =     0.04005938   -0.01322712    0.02460156
     atom   55 type  2   force =     0.04005938    0.01322712   -0.02460156
     atom   56 type  2   force =    -0.04005938   -0.01322712   -0.02460156
     atom   57 type  2   force =     0.01337006   -0.02572721    0.00394333
     atom   58 type  2   force =    -0.01337006    0.02572721    0.00394333
     atom   59 type  2   force =    -0.01337006   -0.02572721   -0.00394333
     atom   60 type  2   force =     0.01337006    0.02572721   -0.00394333
     atom   61 type  2   force =     0.00597386   -0.00696399    0.00405463
     atom   62 type  2   force =    -0.00597386    0.00696399    0.00405463
     atom   63 type  2   force =    -0.00597386   -0.00696399   -0.00405463
     atom   64 type  2   force =     0.00597386    0.00696399   -0.00405463
     atom   65 type  2   force =     0.00047582   -0.01800570    0.01267770
     atom   66 type  2   force =    -0.00047582    0.01800570    0.01267770
     atom   67 type  2   force =    -0.00047582   -0.01800570   -0.01267770
     atom   68 type  2   force =     0.00047582    0.01800570   -0.01267770
     atom   69 type  2   force =     0.01258844   -0.01715771    0.00562890
     atom   70 type  2   force =    -0.01258844    0.01715771    0.00562890
     atom   71 type  2   force =    -0.01258844   -0.01715771   -0.00562890
     atom   72 type  2   force =     0.01258844    0.01715771   -0.00562890
     atom   73 type  2   force =     0.01320028   -0.04620386    0.04401925
     atom   74 type  2   force =    -0.01320028    0.04620386    0.04401925
     atom   75 type  2   force =    -0.01320028   -0.04620386   -0.04401925
     atom   76 type  2   force =     0.01320028    0.04620386   -0.04401925
     atom   77 type  2   force =    -0.04529957    0.03060853    0.03625366
     atom   78 type  2   force =     0.04529957   -0.03060853    0.03625366
     atom   79 type  2   force =     0.04529957    0.03060853   -0.03625366
     atom   80 type  2   force =    -0.04529957   -0.03060853   -0.03625366

     Total force =     0.332687     Total SCF correction =     0.001132


     Computing stress (Cartesian axis) and pressure

          total   stress  (Ry/bohr**3)                   (kbar)     P=   37.25
   0.00024096   0.00000000   0.00000000         35.45      0.00      0.00
   0.00000000   0.00034022   0.00000000          0.00     50.05      0.00
   0.00000000   0.00000000   0.00017842          0.00      0.00     26.25


     BFGS Geometry Optimization

     number of scf cycles    =   1
     number of bfgs steps    =   0

     enthalpy new            =    -909.9233337479 Ry

     new trust radius        =       0.1114204634 bohr
     new conv_thr            =       0.0000010000 Ry

     new unit-cell volume =   4371.99393 a.u.^3 (   647.86265 Ang^3 )
     density =      1.53922 g/cm^3

CELL_PARAMETERS (angstrom)
   5.616632783   0.000000000   0.000000000
   0.000000000   9.820827455   0.000000000
   0.000000000   0.000000000  11.745157161

ATOMIC_POSITIONS (crystal)
O        0.509041771   0.954231395   0.997651878
O        0.990958229   0.045768587   0.497651878
O        0.490958229   0.454231425   0.502348122
O        0.009041771   0.545768605   0.002348115
O        0.622239480   0.177359929   0.994811197
O        0.877760520   0.822640071   0.494811167
O        0.377760520   0.677359929   0.505188803
O        0.122239480   0.322640071   0.005188822
O        0.390023947   0.106315606   0.237435790
O        0.109976053   0.893684387   0.737435790
O        0.609976024   0.606315613   0.262564210
O        0.890023976   0.393684387   0.762564210
O        0.800856646   0.273963855   0.383929772
O        0.699143354   0.726036175   0.883929742
O        0.199143354   0.773963825   0.116070228
O        0.300856646   0.226036145   0.616070258
N        0.917042081   0.155017448   0.172901381
N        0.582957919   0.844982582   0.672901381
N        0.082957919   0.655017418   0.327098619
N        0.417042081   0.344982552   0.827098619
N        0.394049226   0.935636251   0.368718217
N        0.105950774   0.064363757   0.868718217
N        0.605950804   0.435636251   0.131281783
N        0.894049196   0.564363749   0.631281783
C        0.629096574   0.056991133   0.035336299
C        0.870903426   0.943008848   0.535336303
C        0.370903426   0.556991152   0.464663697
C        0.129096574   0.443008878   0.964663697
C        0.809368209   0.026785395   0.130530775
C        0.690631791   0.973214590   0.630530760
C        0.190631791   0.526785410   0.369469240
C        0.309368209   0.473214590   0.869469240
C        0.709458048   0.941452857   0.227019634
C        0.790541952   0.058547147   0.727019619
C        0.290541952   0.441452857   0.272980381
C        0.209458048   0.558547143   0.772980381
C        0.485013219  -0.000483049   0.279216924
C        0.014986781   1.000483039   0.779216894
C        0.514986781   0.499516961   0.220783076
C        0.985013219   0.500483039   0.720783106
H        0.810535426   0.205582201   0.233730198
H        0.689464574   0.794417814   0.733730227
H        0.189464574   0.705582186   0.266269802
H        0.310535426   0.294417814   0.766269773
H        0.949813603   0.223107547   0.104953264
H        0.550186397   0.776892482   0.604953286
H        0.050186397   0.723107518   0.395046743
H        0.449813603   0.276892453   0.895046714
H        0.087343011   0.136656988   0.209750441
H        0.412656989   0.863343027   0.709750426
H        0.912656989   0.636656973   0.290249574
H        0.587343011   0.363343027   0.790249574
H        0.245823030   0.978568801   0.409783374
H        0.254176955   0.021431220   0.909783374
H        0.754176955   0.478568771   0.090216626
H        0.745823045   0.521431199   0.590216626
H        0.467617253   0.849581930   0.406518462
H        0.032382747   0.150418055   0.906518462
H        0.532382777   0.349581930   0.093481538
H        0.967617223   0.650418070   0.593481538
H        0.954966227   0.967991586   0.088373493
H        0.545033773   0.032008432   0.588373515
H        0.045033773   0.467991557   0.411626515
H        0.454966227   0.532008414   0.911626485
H        0.670685092   0.838671579   0.191453742
H        0.829314908   0.161328451   0.691453742
H        0.329314908   0.338671549   0.308546258
H        0.170685092   0.661328421   0.808546258
H        0.842263175   0.933147630   0.297074756
H        0.657736825   0.066852378   0.797074786
H        0.157736825   0.433147630   0.202925244
H        0.342263175   0.566852370   0.702925214
H        0.834151159   0.191729218   0.435812139
H        0.665848841   0.808270812   0.935812139
H        0.165848841   0.691729188   0.064187861
H        0.334151159   0.308270782   0.564187861
H        0.677956364   0.332283303   0.426530704
H        0.822043636   0.667716697   0.926530733
H        0.322043636   0.832283303   0.073469296
H        0.177956364   0.167716697   0.573469267



     Writing output data file pwscf.save/
     Message from routine punch:
     wavefunctions written to file
     NEW-OLD atomic charge density approx. for the potential
     extrapolated charge  244.49958, renormalised to  240.00000

     total cpu time spent up to now is       69.3 secs

     Self-consistent Calculation

     iteration #  1     ecut=    40.00 Ry     beta= 0.70
     Davidson diagonalization with overlap
     ethr =  1.00E-06,  avg # of iterations =  6.5

     total cpu time spent up to now is       85.3 secs

     total energy              =    -909.43525653 Ry
     Harris-Foulkes estimate   =    -901.73629439 Ry
     estimated scf accuracy    <       0.44883069 Ry

     iteration #  2     ecut=    40.00 Ry     beta= 0.70
     Davidson diagonalization with overlap
     ethr =  1.87E-04,  avg # of iterations =  4.0

     total cpu time spent up to now is       86.7 secs

     total energy              =    -909.85296792 Ry
     Harris-Foulkes estimate   =    -910.32540508 Ry
     estimated scf accuracy    <       1.25750631 Ry

     iteration #  3     ecut=    40.00 Ry     beta= 0.70
     Davidson diagonalization with overlap
     ethr =  1.87E-04,  avg # of iterations =  3.0

     total cpu time spent up to now is       87.9 secs

     total energy              =    -909.94452857 Ry
     Harris-Foulkes estimate   =    -909.97526831 Ry
     estimated scf accuracy    <       0.12466346 Ry

     iteration #  4     ecut=    40.00 Ry     beta= 0.70
     Davidson diagonalization with overlap
     ethr =  5.19E-05,  avg # of iterations =  1.5

     total cpu time spent up to now is       88.4 secs

     total energy              =    -909.93023088 Ry
     Harris-Foulkes estimate   =    -909.95051765 Ry
     estimated scf accuracy    <       0.05325080 Ry

     iteration #  5     ecut=    40.00 Ry     beta= 0.70
     Davidson diagonalization with overlap
     ethr =  2.22E-05,  avg # of iterations =  2.0

     total cpu time spent up to now is       89.1 secs

     total energy              =    -909.93560105 Ry
     Harris-Foulkes estimate   =    -909.93706994 Ry
     estimated scf accuracy    <       0.00405134 Ry

     iteration #  6     ecut=    40.00 Ry     beta= 0.70
     Davidson diagonalization with overlap
     ethr =  1.69E-06,  avg # of iterations =  2.5

     total cpu time spent up to now is       90.1 secs

     total energy              =    -909.93601075 Ry
     Harris-Foulkes estimate   =    -909.93617541 Ry
     estimated scf accuracy    <       0.00053109 Ry

     iteration #  7     ecut=    40.00 Ry     beta= 0.70
     Davidson diagonalization with overlap
     ethr =  2.21E-07,  avg # of iterations =  2.5

     total cpu time spent up to now is       90.7 secs

     total energy              =    -909.93602445 Ry
     Harris-Foulkes estimate   =    -909.93607243 Ry
     estimated scf accuracy    <       0.00013930 Ry

     iteration #  8     ecut=    40.00 Ry     beta= 0.70
     Davidson diagonalization with overlap
     ethr =  5.80E-08,  avg # of iterations =  2.5

     total cpu time spent up to now is       91.4 secs

     total energy              =    -909.93602736 Ry
     Harris-Foulkes estimate   =    -909.93604136 Ry
     estimated scf accuracy    <       0.00003134 Ry

     iteration #  9     ecut=    40.00 Ry     beta= 0.70
     Davidson diagonalization with overlap
     ethr =  1.31E-08,  avg # of iterations =  2.5

     total cpu time spent up to now is       92.3 secs

     total energy              =    -909.93603282 Ry
     Harris-Foulkes estimate   =    -909.93603338 Ry
     estimated scf accuracy    <       0.00000110 Ry

     iteration # 10     ecut=    40.00 Ry     beta= 0.70
     Davidson diagonalization with overlap
     ethr =  4.58E-10,  avg # of iterations =  3.0

     total cpu time spent up to now is       93.4 secs

     End of self-consistent calculation

          k = 0.0000 0.0000 0.0000 ( 18365 PWs)   bands (ev):

   -19.5701 -19.5299 -19.4775 -19.4553 -18.9567 -18.9381 -18.9123 -18.9087
   -17.6337 -17.5401 -17.3745 -17.3626 -17.2828 -17.2453 -17.2377 -17.1275
   -16.9710 -16.9601 -16.8268 -16.7515 -15.6881 -15.6824 -15.6630 -15.6619
   -12.6647 -12.6398 -12.6226 -12.5688 -10.0848 -10.0108  -9.9839  -9.9783
    -8.0522  -8.0019  -7.9937  -7.7929  -7.3141  -7.1867  -7.1599  -7.1384
    -6.8745  -6.8323  -6.7906  -6.5594  -6.4870  -6.4005  -6.2522  -6.1889
    -6.1199  -6.0025  -5.9796  -5.9449  -5.7192  -5.5144  -5.4532  -5.4350
    -5.0523  -4.9448  -4.8406  -4.7788  -4.6252  -4.6203  -4.5854  -4.5546
    -4.5375  -4.2983  -4.2884  -4.2640  -4.0430  -3.9985  -3.8964  -3.8944
    -3.7802  -3.6012  -3.5483  -3.3517  -3.3065  -3.2791  -3.1656  -2.8063
    -2.7011  -2.6998  -2.6838  -2.6046  -2.4597  -2.4052  -2.3355  -2.2193
    -2.1965  -2.1726  -1.9914  -1.9798  -1.8799  -1.8696  -1.8453  -1.6509
    -0.3916  -0.3821  -0.2074  -0.1822  -0.0836  -0.0526   0.0392   0.0754
     0.1281   0.1630   0.2202   0.2334   0.2388   0.3260   0.3336   0.3372
     0.5057   0.5086   0.6021   0.6483   0.6692   0.6742   0.7504   0.8490

          k =-0.4970 0.0000 0.0000 ( 18330 PWs)   bands (ev):

   -19.4978 -19.4978 -19.4895 -19.4895 -18.9201 -18.9201 -18.9105 -18.9105
   -17.5547 -17.5547 -17.4471 -17.4471 -17.3125 -17.3125 -17.1522 -17.1522
   -16.9365 -16.9365 -16.8731 -16.8731 -15.6923 -15.6923 -15.6577 -15.6577
   -12.6119 -12.6119 -12.5189 -12.5189 -10.2602 -10.2602  -9.9769  -9.9769
    -8.0289  -8.0289  -7.6540  -7.6540  -7.2093  -7.2093  -7.1946  -7.1946
    -6.7078  -6.7078  -6.4804  -6.4804  -6.3976  -6.3976  -6.2463  -6.2463
    -6.1142  -6.1142  -5.8604  -5.8604  -5.6551  -5.6551  -5.6209  -5.6209
    -5.3152  -5.3152  -5.0854  -5.0854  -4.8857  -4.8857  -4.6933  -4.6933
    -4.2714  -4.2714  -4.0796  -4.0796  -3.9758  -3.9758  -3.7289  -3.7289
    -3.5720  -3.5720  -3.4722  -3.4722  -3.1352  -3.1352  -3.0231  -3.0231
    -2.7073  -2.7073  -2.5362  -2.5362  -2.3908  -2.3908  -2.2423  -2.2423
    -2.1912  -2.1912  -1.9677  -1.9677  -1.9151  -1.9151  -1.6374  -1.6374
    -0.2500  -0.2500  -0.2170  -0.2170  -0.1316  -0.1316  -0.0802  -0.0802
     0.1443   0.1443   0.1760   0.1760   0.2639   0.2639   0.3455   0.3455
     0.4940   0.4940   0.6097   0.6097   0.6511   0.6511   0.7318   0.7318

     highest occupied level (ev):     0.8490

!    total energy              =    -909.93603315 Ry
     Harris-Foulkes estimate   =    -909.93603322 Ry
     estimated scf accuracy    <       0.00000008 Ry

     The total energy is the sum of the following terms:

     one-electron contribution =    -559.30376357 Ry
     hartree contribution      =     376.11579133 Ry
     xc contribution           =    -246.14470640 Ry
     ewald contribution        =    -480.21676860 Ry
     DFT-D3 Dispersion         =      -0.38658591 Ry

     convergence has been achieved in  10 iterations

     Forces acting on atoms (cartesian axes, Ry/au):

     atom    1 type  4   force =     0.01465908    0.02269662    0.00685448
     atom    2 type  4   force =    -0.01465908   -0.02269662    0.00685448
     atom    3 type  4   force =    -0.01465908    0.02269662   -0.00685448
     atom    4 type  4   force =     0.01465908   -0.02269662   -0.00685448
     atom    5 type  4   force =    -0.00003030   -0.04223840    0.01443645
     atom    6 type  4   force =     0.00003030    0.04223840    0.01443645
     atom    7 type  4   force =     0.00003030   -0.04223840   -0.01443645
     atom    8 type  4   force =    -0.00003030    0.04223840   -0.01443645
     atom    9 type  4   force =     0.01339141   -0.03526019    0.01297660
     atom   10 type  4   force =    -0.01339141    0.03526019    0.01297660
     atom   11 type  4   force =    -0.01339141   -0.03526019   -0.01297660
     atom   12 type  4   force =     0.01339141    0.03526019   -0.01297660
     atom   13 type  4   force =    -0.02491247   -0.01158900    0.05381770
     atom   14 type  4   force =     0.02491247    0.01158900    0.05381770
     atom   15 type  4   force =     0.02491247   -0.01158900   -0.05381770
     atom   16 type  4   force =    -0.02491247    0.01158900   -0.05381770
     atom   17 type  3   force =     0.01233266    0.01468764    0.00262632
     atom   18 type  3   force =    -0.01233266   -0.01468764    0.00262632
     atom   19 type  3   force =    -0.01233266    0.01468764   -0.00262632
     atom   20 type  3   force =     0.01233266   -0.01468764   -0.00262632
     atom   21 type  3   force =    -0.01473047   -0.00862865    0.03347323
     atom   22 type  3   force =     0.01473047    0.00862865    0.03347323
     atom   23 type  3   force =     0.01473047   -0.00862865   -0.03347323
     atom   24 type  3   force =    -0.01473047    0.00862865   -0.03347323
     atom   25 type  1   force =    -0.01850745    0.01837635   -0.02135619
     atom   26 type  1   force =     0.01850745   -0.01837635   -0.02135619
     atom   27 type  1   force =     0.01850745    0.01837635    0.02135619
     atom   28 type  1   force =    -0.01850745   -0.01837635    0.02135619
     atom   29 type  1   force =     0.00389259    0.00079192   -0.01191752
     atom   30 type  1   force =    -0.00389259   -0.00079192   -0.01191752
     atom   31 type  1   force =    -0.00389259    0.00079192    0.01191752
     atom   32 type  1   force =     0.00389259   -0.00079192    0.01191752
     atom   33 type  1   force =     0.00596408   -0.00945936    0.00107492
     atom   34 type  1   force =    -0.00596408    0.00945936    0.00107492
     atom   35 type  1   force =    -0.00596408   -0.00945936   -0.00107492
     atom   36 type  1   force =     0.00596408    0.00945936   -0.00107492
     atom   37 type  1   force =    -0.01595347    0.04106285   -0.02877767
     atom   38 type  1   force =     0.01595347   -0.04106285   -0.02877767
     atom   39 type  1   force =     0.01595347    0.04106285    0.02877767
     atom   40 type  1   force =    -0.01595347   -0.04106285    0.02877767
     atom   41 type  2   force =     0.00850386   -0.00739097   -0.00102950
     atom   42 type  2   force =    -0.00850386    0.00739097   -0.00102950
     atom   43 type  2   force =    -0.00850386   -0.00739097    0.00102950
     atom   44 type  2   force =     0.00850386    0.00739097    0.00102950
     atom   45 type  2   force =    -0.00210432   -0.00037739    0.00368051
     atom   46 type  2   force =     0.00210432    0.00037739    0.00368051
     atom   47 type  2   force =     0.00210432   -0.00037739   -0.00368051
     atom   48 type  2   force =    -0.00210432    0.00037739   -0.00368051
     atom   49 type  2   force =    -0.00912665   -0.00200558   -0.00007176
     atom   50 type  2   force =     0.00912665    0.00200558   -0.00007176
     atom   51 type  2   force =     0.00912665   -0.00200558    0.00007176
     atom   52 type  2   force =    -0.00912665    0.00200558    0.00007176
     atom   53 type  2   force =     0.00855147   -0.00795699   -0.00655398
     atom   54 type  2   force =    -0.00855147    0.00795699   -0.00655398
     atom   55 type  2   force =    -0.00855147   -0.00795699    0.00655398
     atom   56 type  2   force =     0.00855147    0.00795699    0.00655398
     atom   57 type  2   force =    -0.00536393    0.01306516   -0.01750839
     atom   58 type  2   force =     0.00536393   -0.01306516   -0.01750839
     atom   59 type  2   force =     0.00536393    0.01306516    0.01750839
     atom   60 type  2   force =    -0.00536393   -0.01306516    0.01750839
     atom   61 type  2   force =    -0.00944267    0.00296882    0.01183937
     atom   62 type  2   force =     0.00944267   -0.00296882    0.01183937
     atom   63 type  2   force =     0.00944267    0.00296882   -0.01183937
     atom   64 type  2   force =    -0.00944267   -0.00296882   -0.01183937
     atom   65 type  2   force =     0.00512068    0.00812505    0.01772696
     atom   66 type  2   force =    -0.00512068   -0.00812505    0.01772696
     atom   67 type  2   force =    -0.00512068    0.00812505   -0.01772696
     atom   68 type  2   force =     0.00512068   -0.00812505   -0.01772696
     atom   69 type  2   force =    -0.00462914   -0.01072552   -0.01372671
     atom   70 type  2   force =     0.00462914    0.01072552   -0.01372671
     atom   71 type  2   force =     0.00462914   -0.01072552    0.01372671
     atom   72 type  2   force =    -0.00462914    0.01072552    0.01372671
     atom   73 type  2   force =    -0.00436418    0.04197071   -0.02843293
     atom   74 type  2   force =     0.00436418   -0.04197071   -0.02843293
     atom   75 type  2   force =     0.00436418    0.04197071    0.02843293
     atom   76 type  2   force =    -0.00436418   -0.04197071    0.02843293
     atom   77 type  2   force =     0.03011630   -0.02860229   -0.02289777
     atom   78 type  2   force =    -0.03011630    0.02860229   -0.02289777
     atom   79 type  2   force =    -0.03011630   -0.02860229    0.02289777
     atom   80 type  2   force =     0.03011630    0.02860229    0.02289777

     Total force =     0.287849     Total SCF correction =     0.000563


     Computing stress (Cartesian axis) and pressure

          total   stress  (Ry/bohr**3)                   (kbar)     P=  -33.19
  -0.00016801   0.00000000   0.00000000        -24.71      0.00      0.00
   0.00000000  -0.00035289   0.00000000          0.00    -51.91      0.00
   0.00000000   0.00000000  -0.00015593          0.00      0.00    -22.94


     number of scf cycles    =   2
     number of bfgs steps    =   1

     enthalpy old            =    -909.9233337479 Ry
     enthalpy new            =    -909.9360331531 Ry

     CASE: enthalpy_new < enthalpy_old

     new trust radius        =       0.0582053849 bohr
     new conv_thr            =       0.0000005382 Ry

     new unit-cell volume =   4336.06260 a.u.^3 (   642.53818 Ang^3 )
     density =      1.55198 g/cm^3

CELL_PARAMETERS (angstrom)
   5.605756823   0.000000000   0.000000000
   0.000000000   9.777601810   0.000000000
   0.000000000   0.000000000  11.722826467

ATOMIC_POSITIONS (crystal)
O        0.509764249   0.954856639   0.997800877
O        0.990235751   0.045143343   0.497800877
O        0.490235751   0.454856669   0.502199123
O        0.009764249   0.545143361   0.002199116
O        0.622243832   0.176129400   0.995155933
O        0.877756168   0.823870600   0.495155903
O        0.377756168   0.676129400   0.504844067
O        0.122243832   0.323870600   0.004844086
O        0.390651268   0.105270337   0.237750199
O        0.109348732   0.894729656   0.737750199
O        0.609348703   0.605270344   0.262249801
O        0.890651297   0.394729656   0.762249801
O        0.799746735   0.273673465   0.385044981
O        0.700253265   0.726326565   0.885044951
O        0.200253265   0.773673435   0.114955019
O        0.299746735   0.226326535   0.614955049
N        0.917601071   0.155395284   0.172907498
N        0.582398929   0.844604746   0.672907498
N        0.082398929   0.655395254   0.327092502
N        0.417601071   0.344604716   0.827092502
N        0.393356712   0.935428131   0.369514015
N        0.106643288   0.064571877   0.869514015
N        0.606643318   0.435428131   0.130485985
N        0.893356682   0.564571869   0.630485985
C        0.628109680   0.057569088   0.034826038
C        0.871890320   0.942430893   0.534826042
C        0.371890320   0.557569107   0.465173958
C        0.128109680   0.442430923   0.965173958
C        0.809526334   0.026863982   0.130244024
C        0.690473666   0.973136003   0.630244009
C        0.190473666   0.526863997   0.369755991
C        0.309526334   0.473136003   0.869755991
C        0.709759485   0.941262249   0.226982046
C        0.790240515   0.058737755   0.726982031
C        0.290240515   0.441262249   0.273017969
C        0.209759485   0.558737751   0.773017969
C        0.484245526   0.000739295   0.278435345
C        0.015754474   0.999260695   0.778435315
C        0.515754474   0.500739305   0.221564655
C        0.984245526   0.499260695   0.721564685
H        0.810968588   0.205378417   0.233767236
H        0.689031412   0.794621598   0.733767265
H        0.189031412   0.705378402   0.266232764
H        0.310968588   0.294621598   0.766232735
H        0.949723425   0.223201159   0.104981299
H        0.550276575   0.776798870   0.604981321
H        0.050276575   0.723201130   0.395018708
H        0.449723425   0.276798841   0.895018679
H        0.087027040   0.136569479   0.209817985
H        0.412972960   0.863430536   0.709817970
H        0.912972960   0.636569464   0.290182030
H        0.587027040   0.363430536   0.790182030
H        0.245967141   0.978377938   0.409706957
H        0.254032844   0.021622083   0.909706957
H        0.754032844   0.478377908   0.090293043
H        0.745967156   0.521622062   0.590293043
H        0.467430185   0.849876425   0.406071786
H        0.032569815   0.150123560   0.906071786
H        0.532569845   0.349876425   0.093928214
H        0.967430155   0.650123575   0.593928214
H        0.954492503   0.968053235   0.088701927
H        0.545507497   0.031946783   0.588701949
H        0.045507497   0.468053206   0.411298081
H        0.454492503   0.531946765   0.911298051
H        0.670972538   0.838845264   0.191971441
H        0.829027462   0.161154766   0.691971441
H        0.329027462   0.338845234   0.308028559
H        0.170972538   0.661154736   0.808028559
H        0.842110366   0.932725425   0.296734520
H        0.657889634   0.067274583   0.796734550
H        0.157889634   0.432725425   0.203265480
H        0.342110366   0.567274575   0.703265450
H        0.834018052   0.192847055   0.435234432
H        0.665981948   0.807152975   0.935234432
H        0.165981948   0.692847025   0.064765568
H        0.334018052   0.307152945   0.564765568
H        0.679251440   0.331517377   0.426068617
H        0.820748560   0.668482623   0.926068646
H        0.320748560   0.831517377   0.073931383
H        0.179251440   0.168482623   0.573931354



     Writing output data file pwscf.save/
     Message from routine punch:
     wavefunctions written to file
     NEW-OLD atomic charge density approx. for the potential
     extrapolated charge  238.01122, renormalised to  240.00000

     total cpu time spent up to now is      135.6 secs

     Self-consistent Calculation

     iteration #  1     ecut=    40.00 Ry     beta= 0.70
     Davidson diagonalization with overlap
     ethr =  1.00E-06,  avg # of iterations =  6.5

     total cpu time spent up to now is      151.5 secs

     total energy              =    -909.87054272 Ry
     Harris-Foulkes estimate   =    -913.66419439 Ry
     estimated scf accuracy    <       0.08478710 Ry

     iteration #  2     ecut=    40.00 Ry     beta= 0.70
     Davidson diagonalization with overlap
     ethr =  3.53E-05,  avg # of iterations =  4.0

     total cpu time spent up to now is      152.6 secs

     total energy              =    -909.94560699 Ry
     Harris-Foulkes estimate   =    -910.03087293 Ry
     estimated scf accuracy    <       0.22388193 Ry

     iteration #  3     ecut=    40.00 Ry     beta= 0.70
     Davidson diagonalization with overlap
     ethr =  3.53E-05,  avg # of iterations =  2.5

     total cpu time spent up to now is      153.8 secs

     total energy              =    -909.96293828 Ry
     Harris-Foulkes estimate   =    -909.96845995 Ry
     estimated scf accuracy    <       0.02021476 Ry

     iteration #  4     ecut=    40.00 Ry     beta= 0.70
     Davidson diagonalization with overlap
     ethr =  8.42E-06,  avg # of iterations =  2.0

     total cpu time spent up to now is      154.4 secs

     total energy              =    -909.96097702 Ry
     Harris-Foulkes estimate   =    -909.96415863 Ry
     estimated scf accuracy    <       0.00759100 Ry

     iteration #  5     ecut=    40.00 Ry     beta= 0.70
     Davidson diagonalization with overlap
     ethr =  3.16E-06,  avg # of iterations =  2.0

     total cpu time spent up to now is      155.0 secs

     total energy              =    -909.96210559 Ry
     Harris-Foulkes estimate   =    -909.96221543 Ry
     estimated scf accuracy    <       0.00028172 Ry

     iteration #  6     ecut=    40.00 Ry     beta= 0.70
     Davidson diagonalization with overlap
     ethr =  1.17E-07,  avg # of iterations =  3.0

     total cpu time spent up to now is      155.8 secs

     total energy              =    -909.96215909 Ry
     Harris-Foulkes estimate   =    -909.96217091 Ry
     estimated scf accuracy    <       0.00004233 Ry

     iteration #  7     ecut=    40.00 Ry     beta= 0.70
     Davidson diagonalization with overlap
     ethr =  1.76E-08,  avg # of iterations =  3.0

     total cpu time spent up to now is      156.7 secs

     total energy              =    -909.96215711 Ry
     Harris-Foulkes estimate   =    -909.96216446 Ry
     estimated scf accuracy    <       0.00001969 Ry

     iteration #  8     ecut=    40.00 Ry     beta= 0.70
     Davidson diagonalization with overlap
     ethr =  8.20E-09,  avg # of iterations =  3.0

     total cpu time spent up to now is      157.4 secs

     total energy              =    -909.96215760 Ry
     Harris-Foulkes estimate   =    -909.96215995 Ry
     estimated scf accuracy    <       0.00000476 Ry

     iteration #  9     ecut=    40.00 Ry     beta= 0.70
     Davidson diagonalization with overlap
     ethr =  1.98E-09,  avg # of iterations =  3.0

     total cpu time spent up to now is      158.3 secs

     End of self-consistent calculation

          k = 0.0000 0.0000 0.0000 ( 18365 PWs)   bands (ev):

   -19.7350 -19.6911 -19.6436 -19.6187 -19.2714 -19.2596 -19.2289 -19.2267
   -17.7602 -17.6891 -17.5455 -17.5360 -17.3655 -17.3300 -17.3264 -17.2470
   -17.0165 -17.0090 -16.8811 -16.8227 -15.5644 -15.5607 -15.5391 -15.5387
   -12.6070 -12.5837 -12.5623 -12.5101  -9.9850  -9.9203  -9.8891  -9.8867
    -7.9618  -7.8834  -7.8789  -7.6856  -7.2772  -7.1761  -7.1166  -7.0773
    -6.8730  -6.8422  -6.7904  -6.5840  -6.4553  -6.3638  -6.2505  -6.2080
    -6.0855  -6.0170  -5.9316  -5.9091  -5.7509  -5.6881  -5.6339  -5.4122
    -5.0094  -4.8805  -4.8535  -4.8037  -4.6497  -4.6467  -4.5983  -4.5609
    -4.5453  -4.3553  -4.3398  -4.2564  -4.0736  -4.0055  -3.9081  -3.8870
    -3.7841  -3.6095  -3.5414  -3.3653  -3.3275  -3.2768  -3.1808  -2.8313
    -2.7420  -2.7375  -2.6978  -2.6528  -2.4542  -2.4303  -2.3836  -2.2437
    -2.2181  -2.2035  -1.9937  -1.9929  -1.8989  -1.8570  -1.7998  -1.6291
    -0.3392  -0.3381  -0.1818  -0.1781  -0.0636  -0.0425   0.0601   0.1155
     0.1608   0.1827   0.2726   0.2741   0.2888   0.3881   0.4221   0.4578
     0.5004   0.5633   0.6313   0.6824   0.6828   0.7252   0.7695   0.9150

          k =-0.4980 0.0000 0.0000 ( 18330 PWs)   bands (ev):

   -19.6608 -19.6608 -19.6514 -19.6514 -19.2430 -19.2430 -19.2362 -19.2362
   -17.6827 -17.6827 -17.6100 -17.6100 -17.3813 -17.3813 -17.2727 -17.2727
   -16.9865 -16.9865 -16.9414 -16.9414 -15.5656 -15.5656 -15.5313 -15.5313
   -12.5584 -12.5584 -12.4618 -12.4618 -10.1676 -10.1676  -9.8839  -9.8839
    -7.9090  -7.9090  -7.5292  -7.5292  -7.1812  -7.1811  -7.1573  -7.1573
    -6.7288  -6.7288  -6.4665  -6.4665  -6.3787  -6.3787  -6.2572  -6.2571
    -6.0997  -6.0997  -5.8706  -5.8706  -5.7562  -5.7562  -5.6898  -5.6898
    -5.2917  -5.2917  -5.0633  -5.0633  -4.8687  -4.8687  -4.7067  -4.7067
    -4.2893  -4.2893  -4.0767  -4.0767  -3.9848  -3.9848  -3.7285  -3.7285
    -3.6066  -3.6066  -3.5157  -3.5157  -3.1577  -3.1577  -3.0695  -3.0695
    -2.7552  -2.7552  -2.5994  -2.5994  -2.3858  -2.3858  -2.2641  -2.2641
    -2.1835  -2.1835  -1.9594  -1.9594  -1.9299  -1.9299  -1.6288  -1.6288
    -0.2062  -0.2062  -0.1834  -0.1834  -0.0886  -0.0886  -0.0431  -0.0431
     0.1704   0.1704   0.2174   0.2174   0.3113   0.3113   0.3751   0.3751
     0.5800   0.5800   0.6466   0.6466   0.6930   0.6930   0.7806   0.7806

     highest occupied level (ev):     0.9150

!    total energy              =    -909.96215861 Ry
     Harris-Foulkes estimate   =    -909.96215880 Ry
     estimated scf accuracy    <       0.00000022 Ry

     The total energy is the sum of the following terms:

     one-electron contribution =    -562.68907561 Ry
     hartree contribution      =     378.15045693 Ry
     xc contribution           =    -246.79741896 Ry
     ewald contribution        =    -478.23647005 Ry
     DFT-D3 Dispersion         =      -0.38965091 Ry

     convergence has been achieved in   9 iterations

     Forces acting on atoms (cartesian axes, Ry/au):

     atom    1 type  4   force =    -0.00066060    0.00004733   -0.00138685
     atom    2 type  4   force =     0.00066060   -0.00004733   -0.00138685
     atom    3 type  4   force =     0.00066060    0.00004733    0.00138685
     atom    4 type  4   force =    -0.00066060   -0.00004733    0.00138685
     atom    5 type  4   force =    -0.00265857    0.01370082   -0.00706394
     atom    6 type  4   force =     0.00265857   -0.01370082   -0.00706394
     atom    7 type  4   force =     0.00265857    0.01370082    0.00706394
     atom    8 type  4   force =    -0.00265857   -0.01370082    0.00706394
     atom    9 type  4   force =    -0.01244448    0.01703435   -0.01203391
     atom   10 type  4   force =     0.01244448   -0.01703435   -0.01203391
     atom   11 type  4   force =     0.01244448    0.01703435    0.01203391
     atom   12 type  4   force =    -0.01244448   -0.01703435    0.01203391
     atom   13 type  4   force =    -0.00825540   -0.00239784    0.01374864
     atom   14 type  4   force =     0.00825540    0.00239784    0.01374864
     atom   15 type  4   force =     0.00825540   -0.00239784   -0.01374864
     atom   16 type  4   force =    -0.00825540    0.00239784   -0.01374864
     atom   17 type  3   force =     0.00884618    0.00812912    0.00266180
     atom   18 type  3   force =    -0.00884618   -0.00812912    0.00266180
     atom   19 type  3   force =    -0.00884618    0.00812912   -0.00266180
     atom   20 type  3   force =     0.00884618   -0.00812912   -0.00266180
     atom   21 type  3   force =    -0.00163093    0.01171719   -0.00196278
     atom   22 type  3   force =     0.00163093   -0.01171719   -0.00196278
     atom   23 type  3   force =     0.00163093    0.01171719    0.00196278
     atom   24 type  3   force =    -0.00163093   -0.01171719    0.00196278
     atom   25 type  1   force =     0.00101198   -0.01448013    0.00642740
     atom   26 type  1   force =    -0.00101198    0.01448013    0.00642740
     atom   27 type  1   force =    -0.00101198   -0.01448013   -0.00642740
     atom   28 type  1   force =     0.00101198    0.01448013   -0.00642740
     atom   29 type  1   force =    -0.00099122    0.00035044   -0.00611378
     atom   30 type  1   force =     0.00099122   -0.00035044   -0.00611378
     atom   31 type  1   force =     0.00099122    0.00035044    0.00611378
     atom   32 type  1   force =    -0.00099122   -0.00035044    0.00611378
     atom   33 type  1   force =     0.00235490    0.00192492   -0.00058349
     atom   34 type  1   force =    -0.00235490   -0.00192492   -0.00058349
     atom   35 type  1   force =    -0.00235490    0.00192492    0.00058349
     atom   36 type  1   force =     0.00235490   -0.00192492    0.00058349
     atom   37 type  1   force =     0.00351537   -0.02354591    0.01690990
     atom   38 type  1   force =    -0.00351537    0.02354591    0.01690990
     atom   39 type  1   force =    -0.00351537   -0.02354591   -0.01690990
     atom   40 type  1   force =     0.00351537    0.02354591   -0.01690990
     atom   41 type  2   force =     0.00618168   -0.00299688    0.00180690
     atom   42 type  2   force =    -0.00618168    0.00299688    0.00180690
     atom   43 type  2   force =    -0.00618168   -0.00299688   -0.00180690
     atom   44 type  2   force =     0.00618168    0.00299688   -0.00180690
     atom   45 type  2   force =    -0.00040245    0.00504379   -0.00027478
     atom   46 type  2   force =     0.00040245   -0.00504379   -0.00027478
     atom   47 type  2   force =     0.00040245    0.00504379    0.00027478
     atom   48 type  2   force =    -0.00040245   -0.00504379    0.00027478
     atom   49 type  2   force =    -0.00561387   -0.00123415    0.00109820
     atom   50 type  2   force =     0.00561387    0.00123415    0.00109820
     atom   51 type  2   force =     0.00561387   -0.00123415   -0.00109820
     atom   52 type  2   force =    -0.00561387    0.00123415   -0.00109820
     atom   53 type  2   force =    -0.00178491   -0.00399815    0.00159894
     atom   54 type  2   force =     0.00178491    0.00399815    0.00159894
     atom   55 type  2   force =     0.00178491   -0.00399815   -0.00159894
     atom   56 type  2   force =    -0.00178491    0.00399815   -0.00159894
     atom   57 type  2   force =     0.00082807   -0.00033873   -0.00881154
     atom   58 type  2   force =    -0.00082807    0.00033873   -0.00881154
     atom   59 type  2   force =    -0.00082807   -0.00033873    0.00881154
     atom   60 type  2   force =     0.00082807    0.00033873    0.00881154
     atom   61 type  2   force =    -0.00312542   -0.00095426    0.00590986
     atom   62 type  2   force =     0.00312542    0.00095426    0.00590986
     atom   63 type  2   force =     0.00312542   -0.00095426   -0.00590986
     atom   64 type  2   force =    -0.00312542    0.00095426   -0.00590986
     atom   65 type  2   force =     0.00234599   -0.00179384    0.01248651
     atom   66 type  2   force =    -0.00234599    0.00179384    0.01248651
     atom   67 type  2   force =    -0.00234599   -0.00179384   -0.01248651
     atom   68 type  2   force =     0.00234599    0.00179384   -0.01248651
     atom   69 type  2   force =    -0.00064960   -0.01001584   -0.00762752
     atom   70 type  2   force =     0.00064960    0.01001584   -0.00762752
     atom   71 type  2   force =     0.00064960   -0.01001584    0.00762752
     atom   72 type  2   force =    -0.00064960    0.01001584    0.00762752
     atom   73 type  2   force =     0.00058328    0.01488365   -0.00611447
     atom   74 type  2   force =    -0.00058328   -0.01488365   -0.00611447
     atom   75 type  2   force =    -0.00058328    0.01488365    0.00611447
     atom   76 type  2   force =     0.00058328   -0.01488365    0.00611447
     atom   77 type  2   force =     0.00816771   -0.01129358   -0.00534149
     atom   78 type  2   force =    -0.00816771    0.01129358   -0.00534149
     atom   79 type  2   force =    -0.00816771   -0.01129358    0.00534149
     atom   80 type  2   force =     0.00816771    0.01129358    0.00534149

     Total force =     0.120160     Total SCF correction =     0.000763


     Computing stress (Cartesian axis) and pressure

          total   stress  (Ry/bohr**3)                   (kbar)     P=   -2.56
  -0.00003440   0.00000000   0.00000000         -5.06      0.00      0.00
   0.00000000   0.00002109   0.00000000          0.00      3.10      0.00
   0.00000000   0.00000000  -0.00003895          0.00      0.00     -5.73


     number of scf cycles    =   3
     number of bfgs steps    =   2

     enthalpy old            =    -909.9360331531 Ry
     enthalpy new            =    -909.9621586110 Ry

     CASE: enthalpy_new < enthalpy_old

     new trust radius        =       0.0244599231 bohr
     new conv_thr            =       0.0000002355 Ry

     new unit-cell volume =   4320.32680 a.u.^3 (   640.20637 Ang^3 )
     density =      1.55763 g/cm^3

CELL_PARAMETERS (angstrom)
   5.597711538   0.000000000   0.000000000
   0.000000000   9.770849347   0.000000000
   0.000000000   0.000000000  11.705154788

ATOMIC_POSITIONS (crystal)
O        0.509892277   0.955028888   0.997781481
O        0.990107723   0.044971094   0.497781481
O        0.490107723   0.455028918   0.502218519
O        0.009892277   0.544971112   0.002218512
O        0.621993419   0.176553777   0.994928536
O        0.878006581   0.823446223   0.494928506
O        0.378006581   0.676553777   0.505071464
O        0.121993419   0.323446223   0.005071483
O        0.389656416   0.105926704   0.237290989
O        0.110343584   0.894073289   0.737290989
O        0.610343555   0.605926711   0.262709011
O        0.889656445   0.394073289   0.762709011
O        0.798644301   0.273456758   0.385998155
O        0.701355699   0.726543272   0.885998125
O        0.201355699   0.773456728   0.114001845
O        0.298644301   0.226543242   0.614001875
N        0.918593811   0.155943890   0.173044657
N        0.581406189   0.844056140   0.673044657
N        0.081406189   0.655943860   0.326955343
N        0.418593811   0.344056110   0.826955343
N        0.393011404   0.935994037   0.369632745
N        0.106988596   0.064005971   0.869632745
N        0.606988626   0.435994037   0.130367255
N        0.893011374   0.564005963   0.630367255
C        0.627967006   0.056924166   0.034982224
C        0.872032994   0.943075815   0.534982228
C        0.372032994   0.556924185   0.465017772
C        0.127967006   0.443075845   0.965017772
C        0.809484674   0.026887084   0.129896632
C        0.690515326   0.973112901   0.629896617
C        0.190515326   0.526887099   0.370103383
C        0.309484674   0.473112901   0.870103383
C        0.710057914   0.941293138   0.226964432
C        0.789942086   0.058706866   0.726964417
C        0.289942086   0.441293138   0.273035583
C        0.210057914   0.558706862   0.773035583
C        0.484368440  -0.000225037   0.279018197
C        0.015631560   1.000225027   0.779018167
C        0.515631560   0.499774973   0.220981803
C        0.984368440   0.500225027   0.720981833
H        0.811659388   0.205161693   0.233839991
H        0.688340612   0.794838322   0.733840020
H        0.188340612   0.705161678   0.266160009
H        0.311659388   0.294838322   0.766159980
H        0.949657908   0.223466974   0.104993494
H        0.550342092   0.776533055   0.604993516
H        0.050342092   0.723466945   0.395006513
H        0.449657908   0.276533026   0.895006484
H        0.086377093   0.136488956   0.209864670
H        0.413622907   0.863511059   0.709864655
H        0.913622907   0.636488941   0.290135345
H        0.586377093   0.363511059   0.790135345
H        0.245918609   0.978102181   0.409735751
H        0.254081376   0.021897840   0.909735751
H        0.754081376   0.478102151   0.090264249
H        0.745918624   0.521897819   0.590264249
H        0.467436125   0.849957821   0.405569817
H        0.032563875   0.150042164   0.905569817
H        0.532563905   0.349957821   0.094430183
H        0.967436095   0.650042179   0.594430183
H        0.954076575   0.968024621   0.089038396
H        0.545923425   0.031975397   0.589038418
H        0.045923425   0.468024592   0.410961612
H        0.454076575   0.531975379   0.910961582
H        0.671258365   0.838810866   0.192637435
H        0.828741635   0.161189164   0.692637435
H        0.328741635   0.338810836   0.307362565
H        0.171258365   0.661189134   0.807362565
H        0.841987028   0.932109388   0.296308453
H        0.658012972   0.067890620   0.796308483
H        0.158012972   0.432109388   0.203691547
H        0.341987028   0.567890612   0.703691517
H        0.834013813   0.193963924   0.434781995
H        0.665986187   0.806036106   0.934781995
H        0.165986187   0.693963894   0.065218005
H        0.334013813   0.306036076   0.565218005
H        0.680415257   0.330694379   0.425685465
H        0.819584743   0.669305621   0.925685494
H        0.319584743   0.830694379   0.074314535
H        0.180415257   0.169305621   0.574314506



     Writing output data file pwscf.save/
     Message from routine punch:
     wavefunctions written to file
     NEW-OLD atomic charge density approx. for the potential
     extrapolated charge  239.12586, renormalised to  240.00000

     total cpu time spent up to now is      201.0 secs

     Self-consistent Calculation

     iteration #  1     ecut=    40.00 Ry     beta= 0.70
     Davidson diagonalization with overlap
     ethr =  1.00E-06,  avg # of iterations =  6.0

     total cpu time spent up to now is      217.2 secs

     total energy              =    -909.94795316 Ry
     Harris-Foulkes estimate   =    -911.58091363 Ry
     estimated scf accuracy    <       0.01653372 Ry

     iteration #  2     ecut=    40.00 Ry     beta= 0.70
     Davidson diagonalization with overlap
     ethr =  6.89E-06,  avg # of iterations =  4.0

     total cpu time spent up to now is      218.3 secs

     total energy              =    -909.96099601 Ry
     Harris-Foulkes estimate   =    -909.97822748 Ry
     estimated scf accuracy    <       0.04600282 Ry

     iteration #  3     ecut=    40.00 Ry     beta= 0.70
     Davidson diagonalization with overlap
     ethr =  6.89E-06,  avg # of iterations =  3.0

     total cpu time spent up to now is      219.5 secs

     total energy              =    -909.96473425 Ry
     Harris-Foulkes estimate   =    -909.96592330 Ry
     estimated scf accuracy    <       0.00394993 Ry

     iteration #  4     ecut=    40.00 Ry     beta= 0.70
     Davidson diagonalization with overlap
     ethr =  1.65E-06,  avg # of iterations =  2.5

     total cpu time spent up to now is      220.4 secs

     total energy              =    -909.96438046 Ry
     Harris-Foulkes estimate   =    -909.96507957 Ry
     estimated scf accuracy    <       0.00152454 Ry

     iteration #  5     ecut=    40.00 Ry     beta= 0.70
     Davidson diagonalization with overlap
     ethr =  6.35E-07,  avg # of iterations =  3.0

     total cpu time spent up to now is      221.1 secs

     total energy              =    -909.96465940 Ry
     Harris-Foulkes estimate   =    -909.96467984 Ry
     estimated scf accuracy    <       0.00003984 Ry

     iteration #  6     ecut=    40.00 Ry     beta= 0.70
     Davidson diagonalization with overlap
     ethr =  1.66E-08,  avg # of iterations =  3.0

     total cpu time spent up to now is      221.9 secs

     total energy              =    -909.96467495 Ry
     Harris-Foulkes estimate   =    -909.96467776 Ry
     estimated scf accuracy    <       0.00000656 Ry

     iteration #  7     ecut=    40.00 Ry     beta= 0.70
     Davidson diagonalization with overlap
     ethr =  2.74E-09,  avg # of iterations =  4.0

     total cpu time spent up to now is      222.7 secs

     total energy              =    -909.96467596 Ry
     Harris-Foulkes estimate   =    -909.96467676 Ry
     estimated scf accuracy    <       0.00000187 Ry

     iteration #  8     ecut=    40.00 Ry     beta= 0.70
     Davidson diagonalization with overlap
     ethr =  7.81E-10,  avg # of iterations =  4.0

     total cpu time spent up to now is      223.7 secs

     total energy              =    -909.96467632 Ry
     Harris-Foulkes estimate   =    -909.96467643 Ry
     estimated scf accuracy    <       0.00000025 Ry

     iteration #  9     ecut=    40.00 Ry     beta= 0.70
     Davidson diagonalization with overlap
     ethr =  1.03E-10,  avg # of iterations =  4.0

     total cpu time spent up to now is      224.6 secs

     End of self-consistent calculation

          k = 0.0000 0.0000 0.0000 ( 18365 PWs)   bands (ev):

   -19.6570 -19.6186 -19.5670 -19.5459 -19.0292 -19.0104 -18.9869 -18.9826
   -17.8861 -17.8321 -17.7404 -17.7374 -17.3845 -17.3009 -17.2784 -17.2719
   -16.9780 -16.9759 -16.8184 -16.7754 -15.6377 -15.6319 -15.6126 -15.6117
   -12.6301 -12.6059 -12.5822 -12.5294 -10.0177  -9.9490  -9.9212  -9.9195
    -8.0000  -7.9258  -7.9130  -7.7218  -7.2818  -7.1691  -7.1124  -7.0834
    -6.8387  -6.8376  -6.7859  -6.6586  -6.4344  -6.3613  -6.3488  -6.2445
    -6.0942  -6.0930  -5.9620  -5.9361  -5.8529  -5.8329  -5.8176  -5.4653
    -5.0256  -4.8908  -4.8514  -4.8435  -4.6544  -4.6162  -4.5970  -4.5252
    -4.5100  -4.2975  -4.2600  -4.2228  -4.0477  -3.9841  -3.8890  -3.8590
    -3.7507  -3.5812  -3.5011  -3.3493  -3.3223  -3.2741  -3.1281  -2.7792
    -2.6820  -2.6804  -2.6596  -2.5967  -2.4212  -2.3816  -2.3118  -2.2015
    -2.1920  -2.1734  -1.9571  -1.9509  -1.8578  -1.8574  -1.7993  -1.6278
    -0.3076  -0.3053  -0.2151  -0.1846  -0.0777  -0.0604   0.0631   0.1540
     0.1726   0.1920   0.2982   0.3206   0.3246   0.4009   0.4496   0.4636
     0.5704   0.6187   0.6977   0.7234   0.7428   0.7866   0.8342   0.9767

          k =-0.4987 0.0000 0.0000 ( 18330 PWs)   bands (ev):

   -19.5873 -19.5873 -19.5794 -19.5794 -18.9934 -18.9934 -18.9834 -18.9834
   -17.8267 -17.8267 -17.7799 -17.7799 -17.3710 -17.3710 -17.2994 -17.2994
   -16.9339 -16.9339 -16.8988 -16.8988 -15.6415 -15.6415 -15.6062 -15.6062
   -12.5770 -12.5770 -12.4807 -12.4807 -10.2009 -10.2009  -9.9125  -9.9125
    -7.9465  -7.9465  -7.5693  -7.5693  -7.1761  -7.1761  -7.1551  -7.1551
    -6.7191  -6.7191  -6.4844  -6.4844  -6.4069  -6.4069  -6.2898  -6.2898
    -6.1641  -6.1641  -5.9697  -5.9697  -5.7864  -5.7864  -5.7424  -5.7424
    -5.3120  -5.3120  -5.0973  -5.0973  -4.8527  -4.8527  -4.7245  -4.7245
    -4.2608  -4.2608  -4.0351  -4.0351  -3.9679  -3.9679  -3.7133  -3.7133
    -3.5950  -3.5950  -3.4612  -3.4612  -3.1254  -3.1254  -3.0164  -3.0164
    -2.6971  -2.6971  -2.5378  -2.5378  -2.3582  -2.3582  -2.2075  -2.2075
    -2.1566  -2.1566  -1.9479  -1.9479  -1.8777  -1.8777  -1.6158  -1.6158
    -0.2238  -0.2238  -0.2063  -0.2063  -0.0621  -0.0621  -0.0211  -0.0211
     0.1741   0.1741   0.2575   0.2575   0.3289   0.3289   0.4329   0.4329
     0.5990   0.5990   0.7030   0.7030   0.7456   0.7456   0.8436   0.8436

     highest occupied level (ev):     0.9767

!    total energy              =    -909.96467634 Ry
     Harris-Foulkes estimate   =    -909.96467640 Ry
     estimated scf accuracy    <       0.00000006 Ry

     The total energy is the sum of the following terms:

     one-electron contribution =    -560.40222235 Ry
     hartree contribution      =     377.20667478 Ry
     xc contribution           =    -246.97292662 Ry
     ewald contribution        =    -479.40526428 Ry
     DFT-D3 Dispersion         =      -0.39093788 Ry

     convergence has been achieved in   9 iterations

     Forces acting on atoms (cartesian axes, Ry/au):

     atom    1 type  4   force =    -0.00583202   -0.00850975   -0.00407244
     atom    2 type  4   force =     0.00583202    0.00850975   -0.00407244
     atom    3 type  4   force =     0.00583202   -0.00850975    0.00407244
     atom    4 type  4   force =    -0.00583202    0.00850975    0.00407244
     atom    5 type  4   force =    -0.00139137   -0.00410548    0.00084625
     atom    6 type  4   force =     0.00139137    0.00410548    0.00084625
     atom    7 type  4   force =     0.00139137   -0.00410548   -0.00084625
     atom    8 type  4   force =    -0.00139137    0.00410548   -0.00084625
     atom    9 type  4   force =     0.00512633   -0.01605100    0.00391888
     atom   10 type  4   force =    -0.00512633    0.01605100    0.00391888
     atom   11 type  4   force =    -0.00512633   -0.01605100   -0.00391888
     atom   12 type  4   force =     0.00512633    0.01605100   -0.00391888
     atom   13 type  4   force =     0.00983016    0.00437942   -0.02371361
     atom   14 type  4   force =    -0.00983016   -0.00437942   -0.02371361
     atom   15 type  4   force =    -0.00983016    0.00437942    0.02371361
     atom   16 type  4   force =     0.00983016   -0.00437942    0.02371361
     atom   17 type  3   force =    -0.00647502   -0.00212233   -0.00500552
     atom   18 type  3   force =     0.00647502    0.00212233   -0.00500552
     atom   19 type  3   force =     0.00647502   -0.00212233    0.00500552
     atom   20 type  3   force =    -0.00647502    0.00212233    0.00500552
     atom   21 type  3   force =     0.00526014   -0.00365331    0.00459335
     atom   22 type  3   force =    -0.00526014    0.00365331    0.00459335
[...]
        49           H   tau(  49) = (   0.0918316   0.2251851   0.4341597  )
        50           H   tau(  50) = (   0.4156168   1.4863671   1.4817095  )
        51           H   tau(  51) = (   0.9230652   1.0809611   0.6133902  )
        52           H   tau(  52) = (   0.5992801   0.6305910   1.6609401  )
        53           H   tau(  53) = (   0.2371762   1.6776724   0.8623365  )
        54           H   tau(  54) = (   0.2702722   0.0338798   1.9098864  )
        55           H   tau(  55) = (   0.7777206   0.8218962   0.1852134  )
        56           H   tau(  56) = (   0.7446247   0.8896558   1.2327632  )
        57           H   tau(  57) = (   0.4574942   1.4506374   0.8476277  )
        58           H   tau(  58) = (   0.0499542   0.2609147   1.8951776  )
        59           H   tau(  59) = (   0.5574027   0.5948614   0.1999222  )
        60           H   tau(  60) = (   0.9649426   1.1166908   1.2474720  )
        61           H   tau(  61) = (   0.9574034   1.6409273   0.1986958  )
        62           H   tau(  62) = (   0.5649418   0.0706249   1.2462457  )
        63           H   tau(  63) = (   0.0574934   0.7851511   0.8488541  )
        64           H   tau(  64) = (   0.4499550   0.9264009   1.8964039  )
        65           H   tau(  65) = (   0.6687599   1.4244918   0.4235575  )
        66           H   tau(  66) = (   0.8535854   0.2870604   1.4711074  )
        67           H   tau(  67) = (   0.3461370   0.5687156   0.6239924  )
        68           H   tau(  68) = (   0.1613115   1.1428364   1.6715423  )
        69           H   tau(  69) = (   0.8421705   1.5856539   0.6294853  )
        70           H   tau(  70) = (   0.6801748   0.1258983   1.6770352  )
        71           H   tau(  71) = (   0.1727263   0.7298778   0.4180646  )
        72           H   tau(  72) = (   0.3347221   0.9816743   1.4656144  )
        73           H   tau(  73) = (   0.8610952   0.3390127   0.9164387  )
        74           H   tau(  74) = (   0.6612500   1.3725395   1.9639885  )
        75           H   tau(  75) = (   0.1538016   1.1947887   0.1311112  )
        76           H   tau(  76) = (   0.3536468   0.5167634   1.1786611  )
        77           H   tau(  77) = (   0.6860731   0.5648643   0.8893228  )
        78           H   tau(  78) = (   0.8362721   1.1466879   1.9368727  )
        79           H   tau(  79) = (   0.3288237   1.4206403   0.1582271  )
        80           H   tau(  80) = (   0.1786247   0.2909118   1.2057769  )

     number of k points=     2
                       cart. coord. in units 2pi/alat
        k(    1) = (   0.0000000   0.0000000   0.0000000), wk =   1.0000000
        k(    2) = (  -0.4926609   0.0000000   0.0000000), wk =   1.0000000

     Dense  grid:   413251 G-vectors     FFT dimensions: (  64, 108, 128)

     Smooth grid:   146119 G-vectors     FFT dimensions: (  48,  80,  90)

     Estimated max dynamical RAM per process >      31.65 MB

     Estimated total dynamical RAM >       5.44 GB

     Initial potential from superposition of free atoms

     starting charge  239.99890, renormalised to  240.00000
     Starting wfcs are  200 randomized atomic wfcs

     total cpu time spent up to now is     2248.4 secs

     Self-consistent Calculation

     iteration #  1     ecut=    40.00 Ry     beta= 0.70
     Davidson diagonalization with overlap
     ethr =  1.00E-06,  avg # of iterations =  7.0

     total cpu time spent up to now is     2265.7 secs

     total energy              =    -907.32192445 Ry
     Harris-Foulkes estimate   =    -912.54257112 Ry
     estimated scf accuracy    <       8.13581148 Ry

     iteration #  2     ecut=    40.00 Ry     beta= 0.70
     Davidson diagonalization with overlap
     ethr =  3.39E-03,  avg # of iterations =  3.0

     total cpu time spent up to now is     2266.8 secs

     total energy              =    -908.87746147 Ry
     Harris-Foulkes estimate   =    -911.31824732 Ry
     estimated scf accuracy    <       4.64080728 Ry

     iteration #  3     ecut=    40.00 Ry     beta= 0.70
     Davidson diagonalization with overlap
     ethr =  1.93E-03,  avg # of iterations =  3.0

     total cpu time spent up to now is     2267.7 secs

     total energy              =    -909.89400880 Ry
     Harris-Foulkes estimate   =    -910.05450743 Ry
     estimated scf accuracy    <       0.31298434 Ry

     iteration #  4     ecut=    40.00 Ry     beta= 0.70
     Davidson diagonalization with overlap
     ethr =  1.30E-04,  avg # of iterations =  3.0

     total cpu time spent up to now is     2268.5 secs

     total energy              =    -909.95960522 Ry
     Harris-Foulkes estimate   =    -910.00349974 Ry
     estimated scf accuracy    <       0.09233147 Ry

     iteration #  5     ecut=    40.00 Ry     beta= 0.70
     Davidson diagonalization with overlap
     ethr =  3.85E-05,  avg # of iterations =  3.5

     total cpu time spent up to now is     2269.4 secs

     total energy              =    -909.97810133 Ry
     Harris-Foulkes estimate   =    -909.98814606 Ry
     estimated scf accuracy    <       0.02311955 Ry

     iteration #  6     ecut=    40.00 Ry     beta= 0.70
     Davidson diagonalization with overlap
     ethr =  9.63E-06,  avg # of iterations =  3.5

     total cpu time spent up to now is     2270.4 secs

     total energy              =    -909.98281558 Ry
     Harris-Foulkes estimate   =    -909.98334224 Ry
     estimated scf accuracy    <       0.00109786 Ry

     iteration #  7     ecut=    40.00 Ry     beta= 0.70
     Davidson diagonalization with overlap
     ethr =  4.57E-07,  avg # of iterations =  4.0

     total cpu time spent up to now is     2271.3 secs

     total energy              =    -909.98307596 Ry
     Harris-Foulkes estimate   =    -909.98324471 Ry
     estimated scf accuracy    <       0.00039477 Ry

     iteration #  8     ecut=    40.00 Ry     beta= 0.70
     Davidson diagonalization with overlap
     ethr =  1.64E-07,  avg # of iterations =  3.5

     total cpu time spent up to now is     2272.2 secs

     total energy              =    -909.98315732 Ry
     Harris-Foulkes estimate   =    -909.98316682 Ry
     estimated scf accuracy    <       0.00002424 Ry

     iteration #  9     ecut=    40.00 Ry     beta= 0.70
     Davidson diagonalization with overlap
     ethr =  1.01E-08,  avg # of iterations =  4.0

     total cpu time spent up to now is     2273.6 secs

     total energy              =    -909.98316306 Ry
     Harris-Foulkes estimate   =    -909.98316531 Ry
     estimated scf accuracy    <       0.00000526 Ry

     iteration # 10     ecut=    40.00 Ry     beta= 0.70
     Davidson diagonalization with overlap
     ethr =  2.19E-09,  avg # of iterations =  3.0

     total cpu time spent up to now is     2274.3 secs

     total energy              =    -909.98316427 Ry
     Harris-Foulkes estimate   =    -909.98316439 Ry
     estimated scf accuracy    <       0.00000035 Ry

     iteration # 11     ecut=    40.00 Ry     beta= 0.70
     Davidson diagonalization with overlap
     ethr =  1.44E-10,  avg # of iterations =  3.0

     total cpu time spent up to now is     2275.1 secs

     total energy              =    -909.98316436 Ry
     Harris-Foulkes estimate   =    -909.98316437 Ry
     estimated scf accuracy    <       0.00000005 Ry

     iteration # 12     ecut=    40.00 Ry     beta= 0.70
     Davidson diagonalization with overlap
     ethr =  2.07E-11,  avg # of iterations =  2.0

     total cpu time spent up to now is     2275.7 secs

     End of self-consistent calculation

          k = 0.0000 0.0000 0.0000 ( 18233 PWs)   bands (ev):

   -19.6025 -19.5600 -19.5094 -19.4892 -19.0535 -19.0352 -19.0115 -19.0071
   -17.7710 -17.7132 -17.5890 -17.5823 -17.2334 -17.2001 -17.1957 -17.1380
   -16.7845 -16.7784 -16.6625 -16.6122 -15.5144 -15.5132 -15.4875 -15.4865
   -12.4884 -12.4737 -12.4325 -12.3736  -9.8988  -9.7939  -9.7910  -9.7729
    -7.8957  -7.8355  -7.7790  -7.5723  -7.1367  -6.9818  -6.9711  -6.9401
    -6.7369  -6.6847  -6.6693  -6.6238  -6.3321  -6.3086  -6.2671  -6.1107
    -6.0003  -5.9239  -5.7804  -5.7588  -5.7049  -5.6911  -5.6332  -5.3126
    -4.9527  -4.7880  -4.7150  -4.7028  -4.5611  -4.5408  -4.5171  -4.4271
    -4.4191  -4.2909  -4.2376  -4.1906  -3.9216  -3.8082  -3.8026  -3.6986
    -3.6074  -3.4777  -3.4189  -3.2667  -3.2379  -3.2042  -3.0429  -2.7184
    -2.6384  -2.6377  -2.5655  -2.5334  -2.4304  -2.2790  -2.2367  -2.1705
    -2.1340  -2.0937  -1.8855  -1.8083  -1.7225  -1.6522  -1.6394  -1.4731
    -0.2533  -0.2346  -0.1241  -0.1213  -0.0370  -0.0006   0.1554   0.1638
     0.2342   0.3002   0.3523   0.3671   0.4012   0.4624   0.4803   0.5052
     0.5845   0.6471   0.7424   0.7604   0.7865   0.8434   0.8781   1.0283

          k =-0.4927 0.0000 0.0000 ( 18274 PWs)   bands (ev):

   -19.5313 -19.5313 -19.5212 -19.5212 -19.0227 -19.0227 -19.0109 -19.0109
   -17.6979 -17.6979 -17.6455 -17.6455 -17.2418 -17.2418 -17.1626 -17.1626
   -16.7711 -16.7711 -16.7351 -16.7351 -15.5181 -15.5181 -15.4770 -15.4770
   -12.4199 -12.4199 -12.3219 -12.3219 -10.0744 -10.0744  -9.7753  -9.7753
    -7.8242  -7.8242  -7.4359  -7.4359  -7.0314  -7.0314  -7.0087  -7.0087
    -6.5496  -6.5496  -6.4154  -6.4154  -6.2866  -6.2866  -6.1480  -6.1480
    -6.0214  -6.0214  -5.8201  -5.8201  -5.7144  -5.7144  -5.6184  -5.6184
    -5.2478  -5.2478  -4.9836  -4.9836  -4.7868  -4.7868  -4.5900  -4.5900
    -4.1297  -4.1297  -3.9716  -3.9716  -3.8816  -3.8816  -3.6081  -3.6081
    -3.4811  -3.4811  -3.4180  -3.4180  -3.0468  -3.0468  -2.9306  -2.9306
    -2.6923  -2.6923  -2.5052  -2.5052  -2.3274  -2.3274  -2.0811  -2.0811
    -2.0667  -2.0667  -1.8790  -1.8790  -1.6762  -1.6762  -1.4576  -1.4576
    -0.1942  -0.1942  -0.1210  -0.1210   0.0033   0.0033   0.0422   0.0422
     0.2544   0.2544   0.2722   0.2722   0.3983   0.3983   0.5068   0.5068
     0.6371   0.6371   0.7577   0.7577   0.7868   0.7868   0.8771   0.8771

     highest occupied level (ev):     1.0283

!    total energy              =    -909.98316437 Ry
     Harris-Foulkes estimate   =    -909.98316437 Ry
     estimated scf accuracy    <          2.0E-09 Ry

     The total energy is the sum of the following terms:

     one-electron contribution =    -547.51935106 Ry
     hartree contribution      =     371.57555983 Ry
     xc contribution           =    -246.91401252 Ry
     ewald contribution        =    -486.73110839 Ry
     DFT-D3 Dispersion         =      -0.39425223 Ry

     convergence has been achieved in  12 iterations

     Forces acting on atoms (cartesian axes, Ry/au):

     atom    1 type  4   force =     0.00004638   -0.00012418   -0.00019911
     atom    2 type  4   force =    -0.00004638    0.00012418   -0.00019911
     atom    3 type  4   force =    -0.00004638   -0.00012418    0.00019911
     atom    4 type  4   force =     0.00004638    0.00012418    0.00019911
     atom    5 type  4   force =    -0.00006791   -0.00008620   -0.00042338
     atom    6 type  4   force =     0.00006791    0.00008620   -0.00042338
     atom    7 type  4   force =     0.00006791   -0.00008620    0.00042338
     atom    8 type  4   force =    -0.00006791    0.00008620    0.00042338
     atom    9 type  4   force =     0.00016854   -0.00043272    0.00083239
     atom   10 type  4   force =    -0.00016854    0.00043272    0.00083239
     atom   11 type  4   force =    -0.00016854   -0.00043272   -0.00083239
     atom   12 type  4   force =     0.00016854    0.00043272   -0.00083239
     atom   13 type  4   force =    -0.00004714   -0.00012161   -0.00044856
     atom   14 type  4   force =     0.00004714    0.00012161   -0.00044856
     atom   15 type  4   force =     0.00004714   -0.00012161    0.00044856
     atom   16 type  4   force =    -0.00004714    0.00012161    0.00044856
     atom   17 type  3   force =    -0.00038465   -0.00027323   -0.00062423
     atom   18 type  3   force =     0.00038465    0.00027323   -0.00062423
     atom   19 type  3   force =     0.00038465   -0.00027323    0.00062423
     atom   20 type  3   force =    -0.00038465    0.00027323    0.00062423
     atom   21 type  3   force =    -0.00022616    0.00016355   -0.00015613
     atom   22 type  3   force =     0.00022616   -0.00016355   -0.00015613
     atom   23 type  3   force =     0.00022616    0.00016355    0.00015613
     atom   24 type  3   force =    -0.00022616   -0.00016355    0.00015613
     atom   25 type  1   force =    -0.00040941    0.00025367    0.00003126
     atom   26 type  1   force =     0.00040941   -0.00025367    0.00003126
     atom   27 type  1   force =     0.00040941    0.00025367   -0.00003126
     atom   28 type  1   force =    -0.00040941   -0.00025367   -0.00003126
     atom   29 type  1   force =    -0.00038584   -0.00012552    0.00010836
     atom   30 type  1   force =     0.00038584    0.00012552    0.00010836
     atom   31 type  1   force =     0.00038584   -0.00012552   -0.00010836
     atom   32 type  1   force =    -0.00038584    0.00012552   -0.00010836
     atom   33 type  1   force =     0.00041398   -0.00027991    0.00053924
     atom   34 type  1   force =    -0.00041398    0.00027991    0.00053924
     atom   35 type  1   force =    -0.00041398   -0.00027991   -0.00053924
     atom   36 type  1   force =     0.00041398    0.00027991   -0.00053924
     atom   37 type  1   force =    -0.00031740    0.00020639    0.00006559
     atom   38 type  1   force =     0.00031740   -0.00020639    0.00006559
     atom   39 type  1   force =     0.00031740    0.00020639   -0.00006559
     atom   40 type  1   force =    -0.00031740   -0.00020639   -0.00006559
     atom   41 type  2   force =     0.00018484   -0.00029649   -0.00070941
     atom   42 type  2   force =    -0.00018484    0.00029649   -0.00070941
     atom   43 type  2   force =    -0.00018484   -0.00029649    0.00070941
     atom   44 type  2   force =     0.00018484    0.00029649    0.00070941
     atom   45 type  2   force =     0.00012529    0.00014216    0.00042442
     atom   46 type  2   force =    -0.00012529   -0.00014216    0.00042442
     atom   47 type  2   force =    -0.00012529    0.00014216   -0.00042442
     atom   48 type  2   force =     0.00012529   -0.00014216   -0.00042442
     atom   49 type  2   force =    -0.00040162   -0.00045295    0.00036407
     atom   50 type  2   force =     0.00040162    0.00045295    0.00036407
     atom   51 type  2   force =     0.00040162   -0.00045295   -0.00036407
     atom   52 type  2   force =    -0.00040162    0.00045295   -0.00036407
     atom   53 type  2   force =    -0.00047014    0.00008590    0.00043515
     atom   54 type  2   force =     0.00047014   -0.00008590    0.00043515
     atom   55 type  2   force =     0.00047014    0.00008590   -0.00043515
     atom   56 type  2   force =    -0.00047014   -0.00008590   -0.00043515
     atom   57 type  2   force =     0.00026221    0.00069853   -0.00004424
     atom   58 type  2   force =    -0.00026221   -0.00069853   -0.00004424
     atom   59 type  2   force =    -0.00026221    0.00069853    0.00004424
     atom   60 type  2   force =     0.00026221   -0.00069853    0.00004424
     atom   61 type  2   force =    -0.00022189   -0.00022848    0.00077072
     atom   62 type  2   force =     0.00022189    0.00022848    0.00077072
     atom   63 type  2   force =     0.00022189   -0.00022848   -0.00077072
     atom   64 type  2   force =    -0.00022189    0.00022848   -0.00077072
     atom   65 type  2   force =     0.00006329   -0.00001617   -0.00057780
     atom   66 type  2   force =    -0.00006329    0.00001617   -0.00057780
     atom   67 type  2   force =    -0.00006329   -0.00001617    0.00057780
     atom   68 type  2   force =     0.00006329    0.00001617    0.00057780
     atom   69 type  2   force =     0.00046420    0.00036825    0.00081523
     atom   70 type  2   force =    -0.00046420   -0.00036825    0.00081523
     atom   71 type  2   force =    -0.00046420    0.00036825   -0.00081523
     atom   72 type  2   force =     0.00046420   -0.00036825   -0.00081523
     atom   73 type  2   force =     0.00022112    0.00035547    0.00017327
     atom   74 type  2   force =    -0.00022112   -0.00035547    0.00017327
     atom   75 type  2   force =    -0.00022112    0.00035547   -0.00017327
     atom   76 type  2   force =     0.00022112   -0.00035547   -0.00017327
     atom   77 type  2   force =    -0.00032010   -0.00012733    0.00058776
     atom   78 type  2   force =     0.00032010    0.00012733    0.00058776
     atom   79 type  2   force =     0.00032010   -0.00012733   -0.00058776
     atom   80 type  2   force =    -0.00032010    0.00012733   -0.00058776

     Total force =     0.005735     Total SCF correction =     0.000087


     Computing stress (Cartesian axis) and pressure

          total   stress  (Ry/bohr**3)                   (kbar)     P=    0.26
   0.00000256   0.00000000   0.00000000          0.38      0.00      0.00
   0.00000000   0.00000050   0.00000000          0.00      0.07      0.00
   0.00000000   0.00000000   0.00000216          0.00      0.00      0.32


     Writing output data file pwscf.save/
 
     init_run     :      1.78s CPU      1.89s WALL (       2 calls)
     electrons    :    790.16s CPU    800.38s WALL (      35 calls)
     update_pot   :      8.51s CPU      8.70s WALL (      33 calls)
     forces       :    751.39s CPU    754.24s WALL (      35 calls)
     stress       :    724.60s CPU    726.23s WALL (      35 calls)

     Called by init_run:
     wfcinit      :      0.83s CPU      0.87s WALL (       2 calls)
     potinit      :      0.27s CPU      0.28s WALL (       2 calls)
     hinit0       :      0.37s CPU      0.40s WALL (       2 calls)

     Called by electrons:
     c_bands      :    229.06s CPU    232.96s WALL (     295 calls)
     sum_band     :     31.07s CPU     31.77s WALL (     295 calls)
     v_of_rho     :      7.43s CPU      7.46s WALL (     322 calls)
     newd         :      5.18s CPU      5.15s WALL (     322 calls)
     mix_rho      :      1.56s CPU      1.60s WALL (     295 calls)

     Called by c_bands:
     init_us_2    :      0.58s CPU      0.61s WALL (     592 calls)
     cegterg      :    227.10s CPU    230.83s WALL (     295 calls)

     Called by sum_band:
     sum_band:bec :      0.18s CPU      0.16s WALL (     295 calls)
     addusdens    :      3.84s CPU      3.87s WALL (     295 calls)

     Called by *egterg:
     h_psi        :    130.53s CPU    133.45s WALL (    1231 calls)
     s_psi        :      3.91s CPU      3.85s WALL (    1231 calls)
     g_psi        :      0.07s CPU      0.09s WALL (     934 calls)
     cdiaghg      :     73.90s CPU     74.52s WALL (    1188 calls)

     Called by h_psi:
     h_psi:pot    :    130.33s CPU    133.28s WALL (    1231 calls)
     h_psi:calbec :      6.39s CPU      6.45s WALL (    1231 calls)
     vloc_psi     :    119.75s CPU    122.58s WALL (    1231 calls)
     add_vuspsi   :      4.18s CPU      4.23s WALL (    1231 calls)

     General routines
     calbec       :     16.47s CPU     16.68s WALL (    1701 calls)
     fft          :     50.14s CPU     51.08s WALL (    5032 calls)
     ffts         :      1.00s CPU      1.03s WALL (     617 calls)
     fftw         :    138.15s CPU    141.51s WALL (  245298 calls)
     interpolate  :      1.20s CPU      1.29s WALL (     322 calls)
     davcio       :      0.02s CPU      0.02s WALL (      34 calls)
 
     Parallel routines
     fft_scatt_xy :      2.62s CPU      2.70s WALL (  250947 calls)
     fft_scatt_yz :    159.44s CPU    162.68s WALL (  250947 calls)
 
     PWSCF        :  38m 3.95s CPU  38m42.29s WALL

 
   This run was terminated on:  14:19:58  16Jul2020            

=------------------------------------------------------------------------------=
   JOB DONE.
=------------------------------------------------------------------------------=
Application 18971573 resources: utime ~406907s, stime ~1493s, Rss ~161464, inblocks ~0, outblocks ~6967168
