 vasp.5.4.4.18Apr17-6-g9f103f2a35 (build Jun 12 2018 15:56:12) complex          
  
 executed on             LinuxIFC date 2019.10.25  20:31:24
 running on   40 total cores
 distrk:  each k-point on   40 cores,    1 groups
 distr:  one band on NCORES_PER_BAND=   5 cores,    8 groups


--------------------------------------------------------------------------------------------------------


 INCAR:
 POTCAR:    PAW_PBE Ba_sv 06Sep2000               
 POTCAR:    PAW_PBE Co_pv 23Apr2009               
 POTCAR:    PAW_PBE O 08Apr2002                   
 POTCAR:    PAW_PBE Ba_sv 06Sep2000               
   VRHFIN =Ba: 5s5p6s                                                           
   LEXCH  = PE                                                                  
   EATOM  =   700.8560 eV,   51.5115 Ry                                         
                                                                                
   TITEL  = PAW_PBE Ba_sv 06Sep2000                                             
   LULTRA =        F    use ultrasoft PP ?                                      
   IUNSCR =        1    unscreen: 0-lin 1-nonlin 2-no                           
   RPACOR =    2.400    partial core radius                                     
   POMASS =  137.327; ZVAL   =   10.000    mass and valenz                      
   RCORE  =    2.800    outmost cutoff radius                                   
   RWIGS  =    3.740; RWIGS  =    1.979    wigner-seitz radius (au A)           
   ENMAX  =  187.181; ENMIN  =  140.386 eV                                      
   RCLOC  =    2.516    cutoff for local pot                                    
   LCOR   =        T    correct aug charges                                     
   LPAW   =        T    paw PP                                                  
   EAUG   =  351.165                                                            
   DEXC   =    0.000                                                            
   RMAX   =    2.865    core radius for proj-oper                               
   RAUG   =    1.300    factor for augmentation sphere                          
   RDEP   =    2.976    radius for radial grids                                 
   RDEPT  =    2.289    core radius for aug-charge                              
                                                                                
   Atomic configuration                                                         
   13 entries                                                                   
     n  l   j            E        occ.                                          
     1  0  0.50    -37249.5946   2.0000                                         
     2  0  0.50     -5887.1925   2.0000                                         
     2  1  1.50     -5278.3977   6.0000                                         
     3  0  0.50     -1242.7293   2.0000                                         
     3  1  1.50     -1047.6609   6.0000                                         
     3  2  2.50      -764.6158  10.0000                                         
     4  0  0.50      -243.8228   2.0000                                         
     4  1  1.50      -180.9218   6.0000                                         
     4  2  2.50       -89.6477  10.0000                                         
     5  0  0.50       -33.6549   2.0000                                         
     6  0  0.50        -3.2247   1.9900                                         
     5  1  1.50       -18.7193   6.0000                                         
     5  2  2.50        -2.0115   0.0100                                         
   Description                                                                  
     l       E           TYP  RCUT    TYP  RCUT                                 
     0    -33.6549039     23  2.800                                             
     0     -3.2246942     23  2.800                                             
     1    -18.7193050     23  2.700                                             
     1     27.2116520     23  2.700                                             
     2     -2.0115002     23  2.700                                             
     2      0.3057420     23  2.700                                             
  local pseudopotential read in
  partial core-charges read in
  partial kinetic energy density read in
  atomic valenz-charges read in
  non local Contribution for L=           0  read in
    real space projection operators read in
  non local Contribution for L=           0  read in
    real space projection operators read in
  non local Contribution for L=           1  read in
    real space projection operators read in
  non local Contribution for L=           1  read in
    real space projection operators read in
  non local Contribution for L=           2  read in
    real space projection operators read in
  non local Contribution for L=           2  read in
    real space projection operators read in
    PAW grid and wavefunctions read in
 
   number of l-projection  operators is LMAX  =           6
   number of lm-projection operators is LMMAX =          18
 
 POTCAR:    PAW_PBE Co_pv 23Apr2009               
   VRHFIN =Co: 3pd7s1                                                           
   LEXCH  = PE                                                                  
   EATOM  =  2948.1334 eV,  216.6817 Ry                                         
                                                                                
   TITEL  = PAW_PBE Co_pv 23Apr2009                                             
   LULTRA =        F    use ultrasoft PP ?                                      
   IUNSCR =        1    unscreen: 0-lin 1-nonlin 2-no                           
   RPACOR =    2.000    partial core radius                                     
   POMASS =   58.933; ZVAL   =   15.000    mass and valenz                      
   RCORE  =    2.300    outmost cutoff radius                                   
   RWIGS  =    2.460; RWIGS  =    1.302    wigner-seitz radius (au A)           
   ENMAX  =  271.042; ENMIN  =  203.281 eV                                      
   ICORE  =        3    local potential                                         
   LCOR   =        T    correct aug charges                                     
   LPAW   =        T    paw PP                                                  
   EAUG   =  543.066                                                            
   DEXC   =    0.000                                                            
   RMAX   =    2.360    core radius for proj-oper                               
   RAUG   =    1.300    factor for augmentation sphere                          
   RDEP   =    2.393    radius for radial grids                                 
   RDEPT  =    1.841    core radius for aug-charge                              
                                                                                
   Atomic configuration                                                         
    8 entries                                                                   
     n  l   j            E        occ.                                          
     1  0  0.50     -7587.6674   2.0000                                         
     2  0  0.50      -893.6084   2.0000                                         
     2  1  1.50      -764.5805   6.0000                                         
     3  0  0.50       -97.5973   2.0000                                         
     3  1  1.50       -60.9648   6.0000                                         
     3  2  2.50        -4.2382   8.0000                                         
     4  0  0.50        -4.3746   1.0000                                         
     4  3  2.50        -1.3606   0.0000                                         
   Description                                                                  
     l       E           TYP  RCUT    TYP  RCUT                                 
     1    -60.9647990     23  2.000                                             
     1     -5.4423304     23  2.000                                             
     2     -4.2382362     23  2.300                                             
     2     -5.5988188     23  2.300                                             
     0     -4.3745797     23  2.300                                             
     0      5.7660125     23  2.300                                             
     3     -1.3605826     23  2.300                                             
  local pseudopotential read in
  partial core-charges read in
  partial kinetic energy density read in
  atomic valenz-charges read in
  non local Contribution for L=           1  read in
    real space projection operators read in
  non local Contribution for L=           1  read in
    real space projection operators read in
  non local Contribution for L=           2  read in
    real space projection operators read in
  non local Contribution for L=           2  read in
    real space projection operators read in
  non local Contribution for L=           0  read in
    real space projection operators read in
  non local Contribution for L=           0  read in
    real space projection operators read in
    PAW grid and wavefunctions read in
 
   number of l-projection  operators is LMAX  =           6
   number of lm-projection operators is LMMAX =          18
 
 POTCAR:    PAW_PBE O 08Apr2002                   
   VRHFIN =O: s2p4                                                              
   LEXCH  = PE                                                                  
   EATOM  =   432.3788 eV,   31.7789 Ry                                         
                                                                                
   TITEL  = PAW_PBE O 08Apr2002                                                 
   LULTRA =        F    use ultrasoft PP ?                                      
   IUNSCR =        1    unscreen: 0-lin 1-nonlin 2-no                           
   RPACOR =    1.200    partial core radius                                     
   POMASS =   16.000; ZVAL   =    6.000    mass and valenz                      
   RCORE  =    1.520    outmost cutoff radius                                   
   RWIGS  =    1.550; RWIGS  =    0.820    wigner-seitz radius (au A)           
   ENMAX  =  400.000; ENMIN  =  300.000 eV                                      
   ICORE  =        2    local potential                                         
   LCOR   =        T    correct aug charges                                     
   LPAW   =        T    paw PP                                                  
   EAUG   =  605.392                                                            
   DEXC   =    0.000                                                            
   RMAX   =    1.553    core radius for proj-oper                               
   RAUG   =    1.300    factor for augmentation sphere                          
   RDEP   =    1.550    radius for radial grids                                 
   RDEPT  =    1.329    core radius for aug-charge                              
                                                                                
   Atomic configuration                                                         
    4 entries                                                                   
     n  l   j            E        occ.                                          
     1  0  0.50      -514.6923   2.0000                                         
     2  0  0.50       -23.9615   2.0000                                         
     2  1  0.50        -9.0305   4.0000                                         
     3  2  1.50        -9.5241   0.0000                                         
   Description                                                                  
     l       E           TYP  RCUT    TYP  RCUT                                 
     0    -23.9615318     23  1.200                                             
     0     -9.5240782     23  1.200                                             
     1     -9.0304911     23  1.520                                             
     1      8.1634956     23  1.520                                             
     2     -9.5240782      7  1.500                                             
  local pseudopotential read in
  partial core-charges read in
  partial kinetic energy density read in
  kinetic energy density of atom read in
  atomic valenz-charges read in
  non local Contribution for L=           0  read in
    real space projection operators read in
  non local Contribution for L=           0  read in
    real space projection operators read in
  non local Contribution for L=           1  read in
    real space projection operators read in
  non local Contribution for L=           1  read in
    real space projection operators read in
    PAW grid and wavefunctions read in
 
   number of l-projection  operators is LMAX  =           4
   number of lm-projection operators is LMMAX =           8
 

 ----------------------------------------------------------------------------- 
|                                                                             |
|  ADVICE TO THIS USER RUNNING 'VASP/VAMP'   (HEAR YOUR MASTER'S VOICE ...):  |
|                                                                             |
|      You have a (more or less) 'small supercell' and for smaller cells      |
|      it is recommended  to use the reciprocal-space projection scheme!      |
|      The real space optimization is not  efficient for small cells and it   |
|      is also less accurate ...                                              |
|      Therefore set LREAL=.FALSE. in the  INCAR file                         |
|                                                                             |
 ----------------------------------------------------------------------------- 

 Optimization of the real space projectors (new method)

 maximal supplied QI-value         = 13.42
 optimisation between [QCUT,QGAM] = [ 11.67, 23.35] = [ 38.16,152.62] Ry 
 Optimized for a Real-space Cutoff    1.68 Angstroem

   l    n(q)    QCUT    max X(q) W(low)/X(q) W(high)/X(q)  e(spline) 
   0     12    11.673    13.244    0.27E-04    0.53E-05    0.55E-07
   0     12    11.673    14.240    0.39E-04    0.74E-05    0.11E-06
   1     11    11.673     4.828    0.65E-05    0.14E-04    0.51E-07
   1     11    11.673     3.934    0.16E-04    0.58E-04    0.38E-06
   2     11    11.673    87.714    0.23E-03    0.16E-03    0.84E-06
   2     11    11.673    59.874    0.22E-03    0.15E-03    0.81E-06
 Optimization of the real space projectors (new method)

 maximal supplied QI-value         = 16.25
 optimisation between [QCUT,QGAM] = [ 11.54, 23.24] = [ 37.28,151.24] Ry 
 Optimized for a Real-space Cutoff    1.32 Angstroem

   l    n(q)    QCUT    max X(q) W(low)/X(q) W(high)/X(q)  e(spline) 
   1      9    11.539     4.946    0.12E-03    0.47E-03    0.20E-06
   1      9    11.539     5.991    0.19E-03    0.70E-03    0.29E-06
   2      8    11.539    46.947    0.22E-03    0.40E-03    0.23E-06
   2      8    11.539    42.928    0.24E-03    0.42E-03    0.23E-06
   0      9    11.539    68.324    0.11E-03    0.13E-03    0.74E-07
   0      9    11.539    36.926    0.10E-03    0.12E-03    0.70E-07
 Optimization of the real space projectors (new method)

 maximal supplied QI-value         = 24.76
 optimisation between [QCUT,QGAM] = [ 11.64, 23.27] = [ 37.91,151.63] Ry 
 Optimized for a Real-space Cutoff    1.14 Angstroem

   l    n(q)    QCUT    max X(q) W(low)/X(q) W(high)/X(q)  e(spline) 
   0      8    11.635    20.381    0.10E-03    0.33E-03    0.24E-06
   0      8    11.635    15.268    0.11E-03    0.35E-03    0.26E-06
   1      7    11.635     5.964    0.24E-03    0.31E-03    0.30E-06
   1      7    11.635     5.382    0.22E-03    0.25E-03    0.26E-06
  PAW_PBE Ba_sv 06Sep2000               :
 energy of atom  1       EATOM= -700.8560
 kinetic energy error for atom=    0.0005 (will be added to EATOM!!)
  PAW_PBE Co_pv 23Apr2009               :
 energy of atom  2       EATOM=-2948.1334
 kinetic energy error for atom=    0.0056 (will be added to EATOM!!)
  PAW_PBE O 08Apr2002                   :
 energy of atom  3       EATOM= -432.3788
 kinetic energy error for atom=    0.0208 (will be added to EATOM!!)
 
 
 POSCAR: Ba1 Co1 O3                              
  positions in direct lattice
  velocities in cartesian coordinates

 METAGGA = SCAN     LMAXTAU =  6    LMIXTAU =  F

 exchange correlation table for  LEXCH =        8
   RHO(1)=    0.500       N(1)  =     2000
   RHO(2)=  100.500       N(2)  =     4000
 


--------------------------------------------------------------------------------------------------------


 ion  position               nearest neighbor table
   1  0.000  0.000  0.009-   3 2.79   3 2.79   3 2.79   3 2.79   4 2.79   5 2.79   5 2.79   4 2.79
                             5 2.80   4 2.80   5 2.80   4 2.80   2 3.40   2 3.40   2 3.40   2 3.40
   2  0.500  0.500  0.502-   3 1.94   4 1.97   5 1.97   5 1.97   4 1.97   3 2.03   1 3.40   1 3.40
                             1 3.40   1 3.40   1 3.43   1 3.43   1 3.43   1 3.43
   3  0.500  0.500  0.013-   2 1.94   2 2.03   1 2.79   1 2.79   1 2.79   1 2.79
   4  0.000  0.500  0.510-   2 1.97   2 1.97   1 2.79   1 2.79   1 2.80   1 2.80
   5  0.500  0.000  0.510-   2 1.97   2 1.97   1 2.79   1 2.79   1 2.80   1 2.80
 
  LATTYP: Found a simple tetragonal cell.
 ALAT       =     3.9387661115
 C/A-ratio  =     1.0062706704
  
  Lattice vectors:
  
 A1 = (   3.9387661115,   0.0000000000,   0.0000000000)
 A2 = (   0.0000000000,   3.9387661115,   0.0000000000)
 A3 = (   0.0000000000,   0.0000000000,   3.9634648155)


Analysis of symmetry for initial positions (statically):
=====================================================================
 Subroutine PRICEL returns:
 Original cell was already a primitive cell.
 

 Routine SETGRP: Setting up the symmetry group for a 
 simple tetragonal supercell.


 Subroutine GETGRP returns: Found  8 space group operations
 (whereof  8 operations were pure point group operations)
 out of a pool of 16 trial point group operations.


The static configuration has the point symmetry C_4v.


Analysis of symmetry for dynamics (positions and initial velocities):
=====================================================================
 Subroutine PRICEL returns:
 Original cell was already a primitive cell.
 

 Routine SETGRP: Setting up the symmetry group for a 
 simple tetragonal supercell.


 Subroutine GETGRP returns: Found  8 space group operations
 (whereof  8 operations were pure point group operations)
 out of a pool of 16 trial point group operations.


The dynamic configuration has the point symmetry C_4v.


Analysis of structural, dynamic, and magnetic symmetry:
=====================================================================
 Subroutine PRICEL returns:
 Original cell was already a primitive cell.
 

 Routine SETGRP: Setting up the symmetry group for a 
 simple tetragonal supercell.


 Subroutine GETGRP returns: Found  8 space group operations
 (whereof  8 operations were pure point group operations)
 out of a pool of 16 trial point group operations.


The magnetic configuration has the point symmetry C_4v.


 Subroutine INISYM returns: Found  8 space group operations
 (whereof  8 operations are pure point group operations),
 and found     1 'primitive' translations

 
 
 KPOINTS: Automatic kpoint scheme                 

Automatic generation of k-mesh.
Space group operators:
 irot       det(A)        alpha          n_x          n_y          n_z        tau_x        tau_y        tau_z
    1     1.000000     0.000000     1.000000     0.000000     0.000000     0.000000     0.000000     0.000000
    2     1.000000    90.000000     0.000000     0.000000    -1.000000     0.000000     0.000000     0.000000
    3     1.000000   180.000000     0.000000     0.000000     1.000000     0.000000     0.000000     0.000000
    4     1.000000    90.000000     0.000000     0.000000     1.000000     0.000000     0.000000     0.000000
    5    -1.000000   180.000000     0.000000     1.000000     0.000000     0.000000     0.000000     0.000000
    6    -1.000000   180.000000     0.707107     0.707107     0.000000     0.000000     0.000000     0.000000
    7    -1.000000   180.000000     1.000000     0.000000     0.000000     0.000000     0.000000     0.000000
    8    -1.000000   180.000000     0.707107    -0.707107     0.000000     0.000000     0.000000     0.000000
 
 Subroutine IBZKPT returns following result:
 ===========================================
 
 Found    196 irreducible k-points:
 
 Following reciprocal coordinates:
            Coordinates               Weight
  0.000000  0.000000  0.000000      1.000000
  0.076923  0.000000  0.000000      4.000000
  0.153846  0.000000  0.000000      4.000000
  0.230769  0.000000  0.000000      4.000000
  0.307692  0.000000  0.000000      4.000000
  0.384615  0.000000  0.000000      4.000000
  0.461538  0.000000  0.000000      4.000000
  0.076923  0.076923  0.000000      4.000000
  0.153846  0.076923  0.000000      8.000000
  0.230769  0.076923  0.000000      8.000000
  0.307692  0.076923  0.000000      8.000000
  0.384615  0.076923  0.000000      8.000000
  0.461538  0.076923  0.000000      8.000000
  0.153846  0.153846  0.000000      4.000000
  0.230769  0.153846  0.000000      8.000000
  0.307692  0.153846  0.000000      8.000000
  0.384615  0.153846  0.000000      8.000000
  0.461538  0.153846  0.000000      8.000000
  0.230769  0.230769  0.000000      4.000000
  0.307692  0.230769  0.000000      8.000000
  0.384615  0.230769  0.000000      8.000000
  0.461538  0.230769  0.000000      8.000000
  0.307692  0.307692  0.000000      4.000000
  0.384615  0.307692  0.000000      8.000000
  0.461538  0.307692  0.000000      8.000000
  0.384615  0.384615  0.000000      4.000000
  0.461538  0.384615  0.000000      8.000000
  0.461538  0.461538  0.000000      4.000000
  0.000000  0.000000  0.076923      2.000000
  0.076923  0.000000  0.076923      8.000000
  0.153846  0.000000  0.076923      8.000000
  0.230769  0.000000  0.076923      8.000000
  0.307692  0.000000  0.076923      8.000000
  0.384615  0.000000  0.076923      8.000000
  0.461538  0.000000  0.076923      8.000000
  0.076923  0.076923  0.076923      8.000000
  0.153846  0.076923  0.076923     16.000000
  0.230769  0.076923  0.076923     16.000000
  0.307692  0.076923  0.076923     16.000000
  0.384615  0.076923  0.076923     16.000000
  0.461538  0.076923  0.076923     16.000000
  0.153846  0.153846  0.076923      8.000000
  0.230769  0.153846  0.076923     16.000000
  0.307692  0.153846  0.076923     16.000000
  0.384615  0.153846  0.076923     16.000000
  0.461538  0.153846  0.076923     16.000000
  0.230769  0.230769  0.076923      8.000000
  0.307692  0.230769  0.076923     16.000000
  0.384615  0.230769  0.076923     16.000000
  0.461538  0.230769  0.076923     16.000000
  0.307692  0.307692  0.076923      8.000000
  0.384615  0.307692  0.076923     16.000000
  0.461538  0.307692  0.076923     16.000000
  0.384615  0.384615  0.076923      8.000000
  0.461538  0.384615  0.076923     16.000000
  0.461538  0.461538  0.076923      8.000000
  0.000000  0.000000  0.153846      2.000000
  0.076923  0.000000  0.153846      8.000000
  0.153846  0.000000  0.153846      8.000000
  0.230769  0.000000  0.153846      8.000000
  0.307692  0.000000  0.153846      8.000000
  0.384615  0.000000  0.153846      8.000000
  0.461538  0.000000  0.153846      8.000000
  0.076923  0.076923  0.153846      8.000000
  0.153846  0.076923  0.153846     16.000000
  0.230769  0.076923  0.153846     16.000000
  0.307692  0.076923  0.153846     16.000000
  0.384615  0.076923  0.153846     16.000000
  0.461538  0.076923  0.153846     16.000000
  0.153846  0.153846  0.153846      8.000000
  0.230769  0.153846  0.153846     16.000000
  0.307692  0.153846  0.153846     16.000000
  0.384615  0.153846  0.153846     16.000000
  0.461538  0.153846  0.153846     16.000000
  0.230769  0.230769  0.153846      8.000000
  0.307692  0.230769  0.153846     16.000000
  0.384615  0.230769  0.153846     16.000000
  0.461538  0.230769  0.153846     16.000000
  0.307692  0.307692  0.153846      8.000000
  0.384615  0.307692  0.153846     16.000000
  0.461538  0.307692  0.153846     16.000000
  0.384615  0.384615  0.153846      8.000000
  0.461538  0.384615  0.153846     16.000000
  0.461538  0.461538  0.153846      8.000000
  0.000000  0.000000  0.230769      2.000000
  0.076923  0.000000  0.230769      8.000000
  0.153846  0.000000  0.230769      8.000000
  0.230769  0.000000  0.230769      8.000000
  0.307692  0.000000  0.230769      8.000000
  0.384615  0.000000  0.230769      8.000000
  0.461538  0.000000  0.230769      8.000000
  0.076923  0.076923  0.230769      8.000000
  0.153846  0.076923  0.230769     16.000000
  0.230769  0.076923  0.230769     16.000000
  0.307692  0.076923  0.230769     16.000000
  0.384615  0.076923  0.230769     16.000000
  0.461538  0.076923  0.230769     16.000000
  0.153846  0.153846  0.230769      8.000000
  0.230769  0.153846  0.230769     16.000000
  0.307692  0.153846  0.230769     16.000000
  0.384615  0.153846  0.230769     16.000000
  0.461538  0.153846  0.230769     16.000000
  0.230769  0.230769  0.230769      8.000000
  0.307692  0.230769  0.230769     16.000000
  0.384615  0.230769  0.230769     16.000000
  0.461538  0.230769  0.230769     16.000000
  0.307692  0.307692  0.230769      8.000000
  0.384615  0.307692  0.230769     16.000000
  0.461538  0.307692  0.230769     16.000000
  0.384615  0.384615  0.230769      8.000000
  0.461538  0.384615  0.230769     16.000000
  0.461538  0.461538  0.230769      8.000000
  0.000000  0.000000  0.307692      2.000000
  0.076923  0.000000  0.307692      8.000000
  0.153846  0.000000  0.307692      8.000000
  0.230769  0.000000  0.307692      8.000000
  0.307692  0.000000  0.307692      8.000000
  0.384615  0.000000  0.307692      8.000000
  0.461538  0.000000  0.307692      8.000000
  0.076923  0.076923  0.307692      8.000000
  0.153846  0.076923  0.307692     16.000000
  0.230769  0.076923  0.307692     16.000000
  0.307692  0.076923  0.307692     16.000000
  0.384615  0.076923  0.307692     16.000000
  0.461538  0.076923  0.307692     16.000000
  0.153846  0.153846  0.307692      8.000000
  0.230769  0.153846  0.307692     16.000000
  0.307692  0.153846  0.307692     16.000000
  0.384615  0.153846  0.307692     16.000000
  0.461538  0.153846  0.307692     16.000000
  0.230769  0.230769  0.307692      8.000000
  0.307692  0.230769  0.307692     16.000000
  0.384615  0.230769  0.307692     16.000000
  0.461538  0.230769  0.307692     16.000000
  0.307692  0.307692  0.307692      8.000000
  0.384615  0.307692  0.307692     16.000000
  0.461538  0.307692  0.307692     16.000000
  0.384615  0.384615  0.307692      8.000000
  0.461538  0.384615  0.307692     16.000000
  0.461538  0.461538  0.307692      8.000000
  0.000000  0.000000  0.384615      2.000000
  0.076923  0.000000  0.384615      8.000000
  0.153846  0.000000  0.384615      8.000000
  0.230769  0.000000  0.384615      8.000000
  0.307692  0.000000  0.384615      8.000000
  0.384615  0.000000  0.384615      8.000000
  0.461538  0.000000  0.384615      8.000000
  0.076923  0.076923  0.384615      8.000000
  0.153846  0.076923  0.384615     16.000000
  0.230769  0.076923  0.384615     16.000000
  0.307692  0.076923  0.384615     16.000000
  0.384615  0.076923  0.384615     16.000000
  0.461538  0.076923  0.384615     16.000000
  0.153846  0.153846  0.384615      8.000000
  0.230769  0.153846  0.384615     16.000000
  0.307692  0.153846  0.384615     16.000000
  0.384615  0.153846  0.384615     16.000000
  0.461538  0.153846  0.384615     16.000000
  0.230769  0.230769  0.384615      8.000000
  0.307692  0.230769  0.384615     16.000000
  0.384615  0.230769  0.384615     16.000000
  0.461538  0.230769  0.384615     16.000000
  0.307692  0.307692  0.384615      8.000000
  0.384615  0.307692  0.384615     16.000000
  0.461538  0.307692  0.384615     16.000000
  0.384615  0.384615  0.384615      8.000000
  0.461538  0.384615  0.384615     16.000000
  0.461538  0.461538  0.384615      8.000000
  0.000000  0.000000  0.461538      2.000000
  0.076923  0.000000  0.461538      8.000000
  0.153846  0.000000  0.461538      8.000000
  0.230769  0.000000  0.461538      8.000000
  0.307692  0.000000  0.461538      8.000000
  0.384615  0.000000  0.461538      8.000000
  0.461538  0.000000  0.461538      8.000000
  0.076923  0.076923  0.461538      8.000000
  0.153846  0.076923  0.461538     16.000000
  0.230769  0.076923  0.461538     16.000000
  0.307692  0.076923  0.461538     16.000000
  0.384615  0.076923  0.461538     16.000000
  0.461538  0.076923  0.461538     16.000000
  0.153846  0.153846  0.461538      8.000000
  0.230769  0.153846  0.461538     16.000000
  0.307692  0.153846  0.461538     16.000000
  0.384615  0.153846  0.461538     16.000000
  0.461538  0.153846  0.461538     16.000000
  0.230769  0.230769  0.461538      8.000000
  0.307692  0.230769  0.461538     16.000000
  0.384615  0.230769  0.461538     16.000000
  0.461538  0.230769  0.461538     16.000000
  0.307692  0.307692  0.461538      8.000000
  0.384615  0.307692  0.461538     16.000000
  0.461538  0.307692  0.461538     16.000000
  0.384615  0.384615  0.461538      8.000000
  0.461538  0.384615  0.461538     16.000000
  0.461538  0.461538  0.461538      8.000000
 
 Following cartesian coordinates:
            Coordinates               Weight
  0.000000  0.000000  0.000000      1.000000
  0.019530  0.000000  0.000000      4.000000
  0.039059  0.000000  0.000000      4.000000
  0.058589  0.000000  0.000000      4.000000
  0.078119  0.000000  0.000000      4.000000
  0.097649  0.000000  0.000000      4.000000
  0.117178  0.000000  0.000000      4.000000
  0.019530  0.019530  0.000000      4.000000
  0.039059  0.019530  0.000000      8.000000
  0.058589  0.019530  0.000000      8.000000
  0.078119  0.019530  0.000000      8.000000
  0.097649  0.019530  0.000000      8.000000
  0.117178  0.019530  0.000000      8.000000
  0.039059  0.039059  0.000000      4.000000
  0.058589  0.039059  0.000000      8.000000
  0.078119  0.039059  0.000000      8.000000
  0.097649  0.039059  0.000000      8.000000
  0.117178  0.039059  0.000000      8.000000
  0.058589  0.058589  0.000000      4.000000
  0.078119  0.058589  0.000000      8.000000
  0.097649  0.058589  0.000000      8.000000
  0.117178  0.058589  0.000000      8.000000
  0.078119  0.078119  0.000000      4.000000
  0.097649  0.078119  0.000000      8.000000
  0.117178  0.078119  0.000000      8.000000
  0.097649  0.097649  0.000000      4.000000
  0.117178  0.097649  0.000000      8.000000
  0.117178  0.117178  0.000000      4.000000
  0.000000  0.000000  0.019408      2.000000
  0.019530  0.000000  0.019408      8.000000
  0.039059  0.000000  0.019408      8.000000
  0.058589  0.000000  0.019408      8.000000
  0.078119  0.000000  0.019408      8.000000
  0.097649  0.000000  0.019408      8.000000
  0.117178  0.000000  0.019408      8.000000
  0.019530  0.019530  0.019408      8.000000
  0.039059  0.019530  0.019408     16.000000
  0.058589  0.019530  0.019408     16.000000
  0.078119  0.019530  0.019408     16.000000
  0.097649  0.019530  0.019408     16.000000
  0.117178  0.019530  0.019408     16.000000
  0.039059  0.039059  0.019408      8.000000
  0.058589  0.039059  0.019408     16.000000
  0.078119  0.039059  0.019408     16.000000
  0.097649  0.039059  0.019408     16.000000
  0.117178  0.039059  0.019408     16.000000
  0.058589  0.058589  0.019408      8.000000
  0.078119  0.058589  0.019408     16.000000
  0.097649  0.058589  0.019408     16.000000
  0.117178  0.058589  0.019408     16.000000
  0.078119  0.078119  0.019408      8.000000
  0.097649  0.078119  0.019408     16.000000
  0.117178  0.078119  0.019408     16.000000
  0.097649  0.097649  0.019408      8.000000
  0.117178  0.097649  0.019408     16.000000
  0.117178  0.117178  0.019408      8.000000
  0.000000  0.000000  0.038816      2.000000
  0.019530  0.000000  0.038816      8.000000
  0.039059  0.000000  0.038816      8.000000
  0.058589  0.000000  0.038816      8.000000
  0.078119  0.000000  0.038816      8.000000
  0.097649  0.000000  0.038816      8.000000
  0.117178  0.000000  0.038816      8.000000
  0.019530  0.019530  0.038816      8.000000
  0.039059  0.019530  0.038816     16.000000
  0.058589  0.019530  0.038816     16.000000
  0.078119  0.019530  0.038816     16.000000
  0.097649  0.019530  0.038816     16.000000
  0.117178  0.019530  0.038816     16.000000
  0.039059  0.039059  0.038816      8.000000
  0.058589  0.039059  0.038816     16.000000
  0.078119  0.039059  0.038816     16.000000
  0.097649  0.039059  0.038816     16.000000
  0.117178  0.039059  0.038816     16.000000
  0.058589  0.058589  0.038816      8.000000
  0.078119  0.058589  0.038816     16.000000
  0.097649  0.058589  0.038816     16.000000
  0.117178  0.058589  0.038816     16.000000
  0.078119  0.078119  0.038816      8.000000
  0.097649  0.078119  0.038816     16.000000
  0.117178  0.078119  0.038816     16.000000
  0.097649  0.097649  0.038816      8.000000
  0.117178  0.097649  0.038816     16.000000
  0.117178  0.117178  0.038816      8.000000
  0.000000  0.000000  0.058224      2.000000
  0.019530  0.000000  0.058224      8.000000
  0.039059  0.000000  0.058224      8.000000
  0.058589  0.000000  0.058224      8.000000
  0.078119  0.000000  0.058224      8.000000
  0.097649  0.000000  0.058224      8.000000
  0.117178  0.000000  0.058224      8.000000
  0.019530  0.019530  0.058224      8.000000
  0.039059  0.019530  0.058224     16.000000
  0.058589  0.019530  0.058224     16.000000
  0.078119  0.019530  0.058224     16.000000
  0.097649  0.019530  0.058224     16.000000
  0.117178  0.019530  0.058224     16.000000
  0.039059  0.039059  0.058224      8.000000
  0.058589  0.039059  0.058224     16.000000
  0.078119  0.039059  0.058224     16.000000
  0.097649  0.039059  0.058224     16.000000
  0.117178  0.039059  0.058224     16.000000
  0.058589  0.058589  0.058224      8.000000
  0.078119  0.058589  0.058224     16.000000
  0.097649  0.058589  0.058224     16.000000
  0.117178  0.058589  0.058224     16.000000
  0.078119  0.078119  0.058224      8.000000
  0.097649  0.078119  0.058224     16.000000
  0.117178  0.078119  0.058224     16.000000
  0.097649  0.097649  0.058224      8.000000
  0.117178  0.097649  0.058224     16.000000
  0.117178  0.117178  0.058224      8.000000
  0.000000  0.000000  0.077632      2.000000
  0.019530  0.000000  0.077632      8.000000
  0.039059  0.000000  0.077632      8.000000
  0.058589  0.000000  0.077632      8.000000
  0.078119  0.000000  0.077632      8.000000
  0.097649  0.000000  0.077632      8.000000
  0.117178  0.000000  0.077632      8.000000
  0.019530  0.019530  0.077632      8.000000
  0.039059  0.019530  0.077632     16.000000
  0.058589  0.019530  0.077632     16.000000
  0.078119  0.019530  0.077632     16.000000
  0.097649  0.019530  0.077632     16.000000
  0.117178  0.019530  0.077632     16.000000
  0.039059  0.039059  0.077632      8.000000
  0.058589  0.039059  0.077632     16.000000
  0.078119  0.039059  0.077632     16.000000
  0.097649  0.039059  0.077632     16.000000
  0.117178  0.039059  0.077632     16.000000
  0.058589  0.058589  0.077632      8.000000
  0.078119  0.058589  0.077632     16.000000
  0.097649  0.058589  0.077632     16.000000
  0.117178  0.058589  0.077632     16.000000
  0.078119  0.078119  0.077632      8.000000
  0.097649  0.078119  0.077632     16.000000
  0.117178  0.078119  0.077632     16.000000
  0.097649  0.097649  0.077632      8.000000
  0.117178  0.097649  0.077632     16.000000
  0.117178  0.117178  0.077632      8.000000
  0.000000  0.000000  0.097040      2.000000
  0.019530  0.000000  0.097040      8.000000
  0.039059  0.000000  0.097040      8.000000
  0.058589  0.000000  0.097040      8.000000
  0.078119  0.000000  0.097040      8.000000
  0.097649  0.000000  0.097040      8.000000
  0.117178  0.000000  0.097040      8.000000
  0.019530  0.019530  0.097040      8.000000
  0.039059  0.019530  0.097040     16.000000
  0.058589  0.019530  0.097040     16.000000
  0.078119  0.019530  0.097040     16.000000
  0.097649  0.019530  0.097040     16.000000
  0.117178  0.019530  0.097040     16.000000
  0.039059  0.039059  0.097040      8.000000
  0.058589  0.039059  0.097040     16.000000
  0.078119  0.039059  0.097040     16.000000
  0.097649  0.039059  0.097040     16.000000
  0.117178  0.039059  0.097040     16.000000
  0.058589  0.058589  0.097040      8.000000
  0.078119  0.058589  0.097040     16.000000
  0.097649  0.058589  0.097040     16.000000
  0.117178  0.058589  0.097040     16.000000
  0.078119  0.078119  0.097040      8.000000
  0.097649  0.078119  0.097040     16.000000
  0.117178  0.078119  0.097040     16.000000
  0.097649  0.097649  0.097040      8.000000
  0.117178  0.097649  0.097040     16.000000
  0.117178  0.117178  0.097040      8.000000
  0.000000  0.000000  0.116448      2.000000
  0.019530  0.000000  0.116448      8.000000
  0.039059  0.000000  0.116448      8.000000
  0.058589  0.000000  0.116448      8.000000
  0.078119  0.000000  0.116448      8.000000
  0.097649  0.000000  0.116448      8.000000
  0.117178  0.000000  0.116448      8.000000
  0.019530  0.019530  0.116448      8.000000
  0.039059  0.019530  0.116448     16.000000
  0.058589  0.019530  0.116448     16.000000
  0.078119  0.019530  0.116448     16.000000
  0.097649  0.019530  0.116448     16.000000
  0.117178  0.019530  0.116448     16.000000
  0.039059  0.039059  0.116448      8.000000
  0.058589  0.039059  0.116448     16.000000
  0.078119  0.039059  0.116448     16.000000
  0.097649  0.039059  0.116448     16.000000
  0.117178  0.039059  0.116448     16.000000
  0.058589  0.058589  0.116448      8.000000
  0.078119  0.058589  0.116448     16.000000
  0.097649  0.058589  0.116448     16.000000
  0.117178  0.058589  0.116448     16.000000
  0.078119  0.078119  0.116448      8.000000
  0.097649  0.078119  0.116448     16.000000
  0.117178  0.078119  0.116448     16.000000
  0.097649  0.097649  0.116448      8.000000
  0.117178  0.097649  0.116448     16.000000
  0.117178  0.117178  0.116448      8.000000
 


--------------------------------------------------------------------------------------------------------




 Dimension of arrays:
   k-points           NKPTS =    196   k-points in BZ     NKDIM =    196   number of bands    NBANDS=     32
   number of dos      NEDOS =    301   number of ions     NIONS =      5
   non local maximal  LDIM  =      6   non local SUM 2l+1 LMDIM =     18
   total plane-waves  NPLWV =  27000
   max r-space proj   IRMAX =   8709   max aug-charges    IRDMAX= 220066
   dimension x,y,z NGX =    30 NGY =   30 NGZ =   30
   dimension x,y,z NGXF=    60 NGYF=   60 NGZF=   60
   support grid    NGXF=   120 NGYF=  120 NGZF=  120
   ions per type =               1   1   3
   NGX,Y,Z   is equivalent  to a cutoff of  12.66, 12.66, 12.58 a.u.
   NGXF,Y,Z  is equivalent  to a cutoff of  25.32, 25.32, 25.17 a.u.

 SYSTEM =  unknown system                          
 POSCAR =  Ba1 Co1 O3                              

 Startparameter for this run:
   NWRITE =      2    write-flag & timer
   PREC   = accura    normal or accurate (medium, high low for compatibility)
   ISTART =      0    job   : 0-new  1-cont  2-samecut
   ICHARG =      1    charge: 1-file 2-atom 10-const
   ISPIN  =      2    spin polarized calculation?
   LNONCOLLINEAR =      F non collinear calculations
   LSORBIT =      F    spin-orbit coupling
   INIWAV =      1    electr: 0-lowe 1-rand  2-diag
   LASPH  =      T    aspherical Exc in radial PAW
   METAGGA=      F    non-selfconsistent MetaGGA calc.

 Electronic Relaxation 1
   ENCUT  =  520.0 eV  38.22 Ry    6.18 a.u.   7.32  7.32  7.37*2*pi/ulx,y,z
   ENINI  =  520.0     initial cutoff
   ENAUG  =  605.4 eV  augmentation charge cutoff
   NELM   =    150;   NELMIN=  6; NELMDL=  0     # of ELM steps 
   EDIFF  = 0.1E-04   stopping-criterion for ELM
   LREAL  =      T    real-space projection
   NLSPLINE    = F    spline interpolate recip. space projectors
   LCOMPAT=      F    compatible to vasp.4.4
   GGA_COMPAT  = T    GGA compatible to vasp.4.4-vasp.4.6
   LMAXPAW     = -100 max onsite density
   LMAXMIX     =    6 max onsite mixed and CHGCAR
   VOSKOWN=      0    Vosko Wilk Nusair interpolation
   ROPT   =   -0.00025  -0.00025  -0.00025
 Ionic relaxation
   EDIFFG = -.3E-01   stopping-criterion for IOM
   NSW    =     99    number of steps for IOM
   NBLOCK =      1;   KBLOCK =     99    inner block; outer block 
   IBRION =      2    ionic relax: 0-MD 1-quasi-New 2-CG
   NFREE  =      1    steps in history (QN), initial steepest desc. (CG)
   ISIF   =      3    stress and relaxation
   IWAVPR =     11    prediction:  0-non 1-charg 2-wave 3-comb
   ISYM   =      2    0-nonsym 1-usesym 2-fastsym
   LCORR  =      T    Harris-Foulkes like correction to forces

   POTIM  = 0.5000    time-step for ionic-motion
   TEIN   =    0.0    initial temperature
   TEBEG  =    0.0;   TEEND  =   0.0 temperature during run
   SMASS  =  -3.00    Nose mass-parameter (am)
   estimated Nose-frequenzy (Omega)   =  0.10E-29 period in steps =****** mass=  -0.355E-27a.u.
   SCALEE = 1.0000    scale energy and forces
   NPACO  =    256;   APACO  = 16.0  distance and # of slots for P.C.
   PSTRESS=    0.0 pullay stress

  Mass of Ions in am
   POMASS = 137.33 58.93 16.00
  Ionic Valenz
   ZVAL   =  10.00 15.00  6.00
  Atomic Wigner-Seitz radii
   RWIGS  =  -1.00 -1.00 -1.00
  virtual crystal weights 
   VCA    =   1.00  1.00  1.00
   NELECT =      43.0000    total number of electrons
   NUPDOWN=      -1.0000    fix difference up-down

 DOS related values:
   EMIN   =  10.00;   EMAX   =-10.00  energy-range for DOS
   EFERMI =   0.00
   ISMEAR =     0;   SIGMA  =   0.05  broadening in eV -4-tet -1-fermi 0-gaus

 Electronic relaxation 2 (details)
   IALGO  =     38    algorithm
   LDIAG  =      T    sub-space diagonalisation (order eigenvalues)
   LSUBROT=      F    optimize rotation matrix (better conditioning)
   TURBO    =      0    0=normal 1=particle mesh
   IRESTART =      0    0=no restart 2=restart with 2 vectors
   NREBOOT  =      0    no. of reboots
   NMIN     =      0    reboot dimension
   EREF     =   0.00    reference energy to select bands
   IMIX   =      4    mixing-type and parameters
     AMIX     =   0.40;   BMIX     =  1.00
     AMIX_MAG =   1.60;   BMIX_MAG =  1.00
     AMIN     =   0.10
     WC   =   100.;   INIMIX=   1;  MIXPRE=   1;  MAXMIX= -45

 Intra band minimization:
   WEIMIN = 0.0010     energy-eigenvalue tresh-hold
   EBREAK =  0.78E-07  absolut break condition
   DEPER  =   0.30     relativ break condition  

   TIME   =   0.40     timestep for ELM

  volume/ion in A,a.u.               =      12.30        82.99
  Fermi-wavevector in a.u.,A,eV,Ry     =   1.453112  2.745984 28.729183  2.111535
  Thomas-Fermi vector in A             =   2.570416
 
 Write flags
   LWAVE        =      F    write WAVECAR
   LDOWNSAMPLE  =      F    k-point downsampling of WAVECAR
   LCHARG       =      T    write CHGCAR
   LVTOT        =      F    write LOCPOT, total local potential
   LVHAR        =      F    write LOCPOT, Hartree potential only
   LELF         =      F    write electronic localiz. function (ELF)
   LORBIT       =     11    0 simple, 1 ext, 2 COOP (PROOUT), +10 PAW based schemes


 Dipole corrections
   LMONO  =      F    monopole corrections only (constant potential shift)
   LDIPOL =      F    correct potential (dipole corrections)
   IDIPOL =      0    1-x, 2-y, 3-z, 4-all directions 
   EPSILON=  1.0000000 bulk dielectric constant

 LDA+U is selected, type is set to LDAUTYPE =  2
   angular momentum for each species LDAUL =    -1    2   -1
   U (eV)           for each species LDAUU =   0.0  3.0  0.0
   J (eV)           for each species LDAUJ =   0.0  0.0  0.0
 Exchange correlation treatment:
   GGA     =    --    GGA type
   LEXCH   =     8    internal setting for exchange type
   VOSKOWN=      0    Vosko Wilk Nusair interpolation
   LHFCALC =     F    Hartree Fock is set to
   LHFONE  =     F    Hartree Fock one center treatment
   AEXX    =    0.0000 exact exchange contribution

 Linear response parameters
   LEPSILON=     F    determine dielectric tensor
   LRPA    =     F    only Hartree local field effects (RPA)
   LNABLA  =     F    use nabla operator in PAW spheres
   LVEL    =     F    velocity operator in full k-point grid
   LINTERFAST=   F  fast interpolation
   KINTER  =     0    interpolate to denser k-point grid
   CSHIFT  =0.1000    complex shift for real part using Kramers Kronig
   OMEGAMAX=  -1.0    maximum frequency
   DEG_THRESHOLD= 0.2000000E-02 threshold for treating states as degnerate
   RTIME   =   -0.100 relaxation time in fs
  (WPLASMAI=    0.000 imaginary part of plasma frequency in eV, 0.658/RTIME)
   DFIELD  = 0.0000000 0.0000000 0.0000000 field for delta impulse in time
 
 Orbital magnetization related:
   ORBITALMAG=     F  switch on orbital magnetization
   LCHIMAG   =     F  perturbation theory with respect to B field
   DQ        =  0.001000  dq finite difference perturbation B field
   LLRAUG    =     F  two centre corrections for induced B field



--------------------------------------------------------------------------------------------------------


 conjugate gradient relaxation of ions
 charge density and potential will be updated during run
 spin polarized calculation
 Variant of blocked Davidson
 Davidson routine will perform the subspace rotation
 perform sub-space diagonalisation
    after iterative eigenvector-optimisation
 modified Broyden-mixing scheme, WC =      100.0
 initial mixing is a Kerker type mixing with AMIX =  0.4000 and BMIX =      1.0000
 Hartree-type preconditioning will be used
 using additional bands           10
 real space projection scheme for non local part
 use partial core corrections
 calculate Harris-corrections to forces 
   (improved forces if not selfconsistent)
 use gradient corrections 
 use of overlap-Matrix (Vanderbilt PP)
 Gauss-broadening in eV      SIGMA  =   0.05


--------------------------------------------------------------------------------------------------------


  energy-cutoff  :      520.00
  volume of cell :       61.49
      direct lattice vectors                 reciprocal lattice vectors
     3.938766112  0.000000000  0.000000000     0.253886616  0.000000000  0.000000000
     0.000000000  3.938766112  0.000000000     0.000000000  0.253886616  0.000000000
     0.000000000  0.000000000  3.963464816     0.000000000  0.000000000  0.252304498

  length of vectors
     3.938766112  3.938766112  3.963464816     0.253886616  0.253886616  0.252304498


 
 k-points in units of 2pi/SCALE and weight: Automatic kpoint scheme                 
   0.00000000  0.00000000  0.00000000       0.000
   0.01952974  0.00000000  0.00000000       0.002
   0.03905948  0.00000000  0.00000000       0.002
   0.05858922  0.00000000  0.00000000       0.002
   0.07811896  0.00000000  0.00000000       0.002
   0.09764870  0.00000000  0.00000000       0.002
   0.11717844  0.00000000  0.00000000       0.002
   0.01952974  0.01952974  0.00000000       0.002
   0.03905948  0.01952974  0.00000000       0.004
   0.05858922  0.01952974  0.00000000       0.004
   0.07811896  0.01952974  0.00000000       0.004
   0.09764870  0.01952974  0.00000000       0.004
   0.11717844  0.01952974  0.00000000       0.004
   0.03905948  0.03905948  0.00000000       0.002
   0.05858922  0.03905948  0.00000000       0.004
   0.07811896  0.03905948  0.00000000       0.004
   0.09764870  0.03905948  0.00000000       0.004
   0.11717844  0.03905948  0.00000000       0.004
   0.05858922  0.05858922  0.00000000       0.002
   0.07811896  0.05858922  0.00000000       0.004
   0.09764870  0.05858922  0.00000000       0.004
   0.11717844  0.05858922  0.00000000       0.004
   0.07811896  0.07811896  0.00000000       0.002
   0.09764870  0.07811896  0.00000000       0.004
   0.11717844  0.07811896  0.00000000       0.004
   0.09764870  0.09764870  0.00000000       0.002
   0.11717844  0.09764870  0.00000000       0.004
   0.11717844  0.11717844  0.00000000       0.002
   0.00000000  0.00000000  0.01940804       0.001
   0.01952974  0.00000000  0.01940804       0.004
   0.03905948  0.00000000  0.01940804       0.004
   0.05858922  0.00000000  0.01940804       0.004
   0.07811896  0.00000000  0.01940804       0.004
   0.09764870  0.00000000  0.01940804       0.004
   0.11717844  0.00000000  0.01940804       0.004
   0.01952974  0.01952974  0.01940804       0.004
   0.03905948  0.01952974  0.01940804       0.007
   0.05858922  0.01952974  0.01940804       0.007
   0.07811896  0.01952974  0.01940804       0.007
   0.09764870  0.01952974  0.01940804       0.007
   0.11717844  0.01952974  0.01940804       0.007
   0.03905948  0.03905948  0.01940804       0.004
   0.05858922  0.03905948  0.01940804       0.007
   0.07811896  0.03905948  0.01940804       0.007
   0.09764870  0.03905948  0.01940804       0.007
   0.11717844  0.03905948  0.01940804       0.007
   0.05858922  0.05858922  0.01940804       0.004
   0.07811896  0.05858922  0.01940804       0.007
   0.09764870  0.05858922  0.01940804       0.007
   0.11717844  0.05858922  0.01940804       0.007
   0.07811896  0.07811896  0.01940804       0.004
   0.09764870  0.07811896  0.01940804       0.007
   0.11717844  0.07811896  0.01940804       0.007
   0.09764870  0.09764870  0.01940804       0.004
   0.11717844  0.09764870  0.01940804       0.007
   0.11717844  0.11717844  0.01940804       0.004
   0.00000000  0.00000000  0.03881608       0.001
   0.01952974  0.00000000  0.03881608       0.004
   0.03905948  0.00000000  0.03881608       0.004
   0.05858922  0.00000000  0.03881608       0.004
   0.07811896  0.00000000  0.03881608       0.004
   0.09764870  0.00000000  0.03881608       0.004
   0.11717844  0.00000000  0.03881608       0.004
   0.01952974  0.01952974  0.03881608       0.004
   0.03905948  0.01952974  0.03881608       0.007
   0.05858922  0.01952974  0.03881608       0.007
   0.07811896  0.01952974  0.03881608       0.007
   0.09764870  0.01952974  0.03881608       0.007
   0.11717844  0.01952974  0.03881608       0.007
   0.03905948  0.03905948  0.03881608       0.004
   0.05858922  0.03905948  0.03881608       0.007
   0.07811896  0.03905948  0.03881608       0.007
   0.09764870  0.03905948  0.03881608       0.007
   0.11717844  0.03905948  0.03881608       0.007
   0.05858922  0.05858922  0.03881608       0.004
   0.07811896  0.05858922  0.03881608       0.007
   0.09764870  0.05858922  0.03881608       0.007
   0.11717844  0.05858922  0.03881608       0.007
   0.07811896  0.07811896  0.03881608       0.004
   0.09764870  0.07811896  0.03881608       0.007
   0.11717844  0.07811896  0.03881608       0.007
   0.09764870  0.09764870  0.03881608       0.004
   0.11717844  0.09764870  0.03881608       0.007
   0.11717844  0.11717844  0.03881608       0.004
   0.00000000  0.00000000  0.05822411       0.001
   0.01952974  0.00000000  0.05822411       0.004
   0.03905948  0.00000000  0.05822411       0.004
   0.05858922  0.00000000  0.05822411       0.004
   0.07811896  0.00000000  0.05822411       0.004
   0.09764870  0.00000000  0.05822411       0.004
   0.11717844  0.00000000  0.05822411       0.004
   0.01952974  0.01952974  0.05822411       0.004
   0.03905948  0.01952974  0.05822411       0.007
   0.05858922  0.01952974  0.05822411       0.007
   0.07811896  0.01952974  0.05822411       0.007
   0.09764870  0.01952974  0.05822411       0.007
   0.11717844  0.01952974  0.05822411       0.007
   0.03905948  0.03905948  0.05822411       0.004
   0.05858922  0.03905948  0.05822411       0.007
   0.07811896  0.03905948  0.05822411       0.007
   0.09764870  0.03905948  0.05822411       0.007
   0.11717844  0.03905948  0.05822411       0.007
   0.05858922  0.05858922  0.05822411       0.004
   0.07811896  0.05858922  0.05822411       0.007
   0.09764870  0.05858922  0.05822411       0.007
   0.11717844  0.05858922  0.05822411       0.007
   0.07811896  0.07811896  0.05822411       0.004
   0.09764870  0.07811896  0.05822411       0.007
   0.11717844  0.07811896  0.05822411       0.007
   0.09764870  0.09764870  0.05822411       0.004
   0.11717844  0.09764870  0.05822411       0.007
   0.11717844  0.11717844  0.05822411       0.004
   0.00000000  0.00000000  0.07763215       0.001
   0.01952974  0.00000000  0.07763215       0.004
   0.03905948  0.00000000  0.07763215       0.004
   0.05858922  0.00000000  0.07763215       0.004
   0.07811896  0.00000000  0.07763215       0.004
   0.09764870  0.00000000  0.07763215       0.004
   0.11717844  0.00000000  0.07763215       0.004
   0.01952974  0.01952974  0.07763215       0.004
   0.03905948  0.01952974  0.07763215       0.007
   0.05858922  0.01952974  0.07763215       0.007
   0.07811896  0.01952974  0.07763215       0.007
   0.09764870  0.01952974  0.07763215       0.007
   0.11717844  0.01952974  0.07763215       0.007
   0.03905948  0.03905948  0.07763215       0.004
   0.05858922  0.03905948  0.07763215       0.007
   0.07811896  0.03905948  0.07763215       0.007
   0.09764870  0.03905948  0.07763215       0.007
   0.11717844  0.03905948  0.07763215       0.007
   0.05858922  0.05858922  0.07763215       0.004
   0.07811896  0.05858922  0.07763215       0.007
   0.09764870  0.05858922  0.07763215       0.007
   0.11717844  0.05858922  0.07763215       0.007
   0.07811896  0.07811896  0.07763215       0.004
   0.09764870  0.07811896  0.07763215       0.007
   0.11717844  0.07811896  0.07763215       0.007
   0.09764870  0.09764870  0.07763215       0.004
   0.11717844  0.09764870  0.07763215       0.007
   0.11717844  0.11717844  0.07763215       0.004
   0.00000000  0.00000000  0.09704019       0.001
   0.01952974  0.00000000  0.09704019       0.004
   0.03905948  0.00000000  0.09704019       0.004
   0.05858922  0.00000000  0.09704019       0.004
   0.07811896  0.00000000  0.09704019       0.004
   0.09764870  0.00000000  0.09704019       0.004
   0.11717844  0.00000000  0.09704019       0.004
   0.01952974  0.01952974  0.09704019       0.004
   0.03905948  0.01952974  0.09704019       0.007
   0.05858922  0.01952974  0.09704019       0.007
   0.07811896  0.01952974  0.09704019       0.007
   0.09764870  0.01952974  0.09704019       0.007
   0.11717844  0.01952974  0.09704019       0.007
   0.03905948  0.03905948  0.09704019       0.004
   0.05858922  0.03905948  0.09704019       0.007
   0.07811896  0.03905948  0.09704019       0.007
   0.09764870  0.03905948  0.09704019       0.007
   0.11717844  0.03905948  0.09704019       0.007
   0.05858922  0.05858922  0.09704019       0.004
   0.07811896  0.05858922  0.09704019       0.007
   0.09764870  0.05858922  0.09704019       0.007
   0.11717844  0.05858922  0.09704019       0.007
   0.07811896  0.07811896  0.09704019       0.004
   0.09764870  0.07811896  0.09704019       0.007
   0.11717844  0.07811896  0.09704019       0.007
   0.09764870  0.09764870  0.09704019       0.004
   0.11717844  0.09764870  0.09704019       0.007
   0.11717844  0.11717844  0.09704019       0.004
   0.00000000  0.00000000  0.11644823       0.001
   0.01952974  0.00000000  0.11644823       0.004
   0.03905948  0.00000000  0.11644823       0.004
   0.05858922  0.00000000  0.11644823       0.004
   0.07811896  0.00000000  0.11644823       0.004
   0.09764870  0.00000000  0.11644823       0.004
   0.11717844  0.00000000  0.11644823       0.004
   0.01952974  0.01952974  0.11644823       0.004
   0.03905948  0.01952974  0.11644823       0.007
   0.05858922  0.01952974  0.11644823       0.007
   0.07811896  0.01952974  0.11644823       0.007
   0.09764870  0.01952974  0.11644823       0.007
   0.11717844  0.01952974  0.11644823       0.007
   0.03905948  0.03905948  0.11644823       0.004
   0.05858922  0.03905948  0.11644823       0.007
   0.07811896  0.03905948  0.11644823       0.007
   0.09764870  0.03905948  0.11644823       0.007
   0.11717844  0.03905948  0.11644823       0.007
   0.05858922  0.05858922  0.11644823       0.004
   0.07811896  0.05858922  0.11644823       0.007
   0.09764870  0.05858922  0.11644823       0.007
   0.11717844  0.05858922  0.11644823       0.007
   0.07811896  0.07811896  0.11644823       0.004
   0.09764870  0.07811896  0.11644823       0.007
   0.11717844  0.07811896  0.11644823       0.007
   0.09764870  0.09764870  0.11644823       0.004
   0.11717844  0.09764870  0.11644823       0.007
   0.11717844  0.11717844  0.11644823       0.004
 
 k-points in reciprocal lattice and weights: Automatic kpoint scheme                 
   0.00000000  0.00000000  0.00000000       0.000
   0.07692308  0.00000000  0.00000000       0.002
   0.15384615  0.00000000  0.00000000       0.002
   0.23076923  0.00000000  0.00000000       0.002
   0.30769231  0.00000000  0.00000000       0.002
   0.38461538  0.00000000  0.00000000       0.002
   0.46153846  0.00000000  0.00000000       0.002
   0.07692308  0.07692308  0.00000000       0.002
   0.15384615  0.07692308  0.00000000       0.004
   0.23076923  0.07692308  0.00000000       0.004
   0.30769231  0.07692308  0.00000000       0.004
   0.38461538  0.07692308  0.00000000       0.004
   0.46153846  0.07692308  0.00000000       0.004
   0.15384615  0.15384615  0.00000000       0.002
   0.23076923  0.15384615  0.00000000       0.004
   0.30769231  0.15384615  0.00000000       0.004
   0.38461538  0.15384615  0.00000000       0.004
   0.46153846  0.15384615  0.00000000       0.004
   0.23076923  0.23076923  0.00000000       0.002
   0.30769231  0.23076923  0.00000000       0.004
   0.38461538  0.23076923  0.00000000       0.004
   0.46153846  0.23076923  0.00000000       0.004
   0.30769231  0.30769231  0.00000000       0.002
   0.38461538  0.30769231  0.00000000       0.004
   0.46153846  0.30769231  0.00000000       0.004
   0.38461538  0.38461538  0.00000000       0.002
   0.46153846  0.38461538  0.00000000       0.004
   0.46153846  0.46153846  0.00000000       0.002
   0.00000000  0.00000000  0.07692308       0.001
   0.07692308  0.00000000  0.07692308       0.004
   0.15384615  0.00000000  0.07692308       0.004
   0.23076923  0.00000000  0.07692308       0.004
   0.30769231  0.00000000  0.07692308       0.004
   0.38461538  0.00000000  0.07692308       0.004
   0.46153846  0.00000000  0.07692308       0.004
   0.07692308  0.07692308  0.07692308       0.004
   0.15384615  0.07692308  0.07692308       0.007
   0.23076923  0.07692308  0.07692308       0.007
   0.30769231  0.07692308  0.07692308       0.007
   0.38461538  0.07692308  0.07692308       0.007
   0.46153846  0.07692308  0.07692308       0.007
   0.15384615  0.15384615  0.07692308       0.004
   0.23076923  0.15384615  0.07692308       0.007
   0.30769231  0.15384615  0.07692308       0.007
   0.38461538  0.15384615  0.07692308       0.007
   0.46153846  0.15384615  0.07692308       0.007
   0.23076923  0.23076923  0.07692308       0.004
   0.30769231  0.23076923  0.07692308       0.007
   0.38461538  0.23076923  0.07692308       0.007
   0.46153846  0.23076923  0.07692308       0.007
   0.30769231  0.30769231  0.07692308       0.004
   0.38461538  0.30769231  0.07692308       0.007
   0.46153846  0.30769231  0.07692308       0.007
   0.38461538  0.38461538  0.07692308       0.004
   0.46153846  0.38461538  0.07692308       0.007
   0.46153846  0.46153846  0.07692308       0.004
   0.00000000  0.00000000  0.15384615       0.001
   0.07692308  0.00000000  0.15384615       0.004
   0.15384615  0.00000000  0.15384615       0.004
   0.23076923  0.00000000  0.15384615       0.004
   0.30769231  0.00000000  0.15384615       0.004
   0.38461538  0.00000000  0.15384615       0.004
   0.46153846  0.00000000  0.15384615       0.004
   0.07692308  0.07692308  0.15384615       0.004
   0.15384615  0.07692308  0.15384615       0.007
   0.23076923  0.07692308  0.15384615       0.007
   0.30769231  0.07692308  0.15384615       0.007
   0.38461538  0.07692308  0.15384615       0.007
   0.46153846  0.07692308  0.15384615       0.007
   0.15384615  0.15384615  0.15384615       0.004
   0.23076923  0.15384615  0.15384615       0.007
   0.30769231  0.15384615  0.15384615       0.007
   0.38461538  0.15384615  0.15384615       0.007
   0.46153846  0.15384615  0.15384615       0.007
   0.23076923  0.23076923  0.15384615       0.004
   0.30769231  0.23076923  0.15384615       0.007
   0.38461538  0.23076923  0.15384615       0.007
   0.46153846  0.23076923  0.15384615       0.007
   0.30769231  0.30769231  0.15384615       0.004
   0.38461538  0.30769231  0.15384615       0.007
   0.46153846  0.30769231  0.15384615       0.007
   0.38461538  0.38461538  0.15384615       0.004
   0.46153846  0.38461538  0.15384615       0.007
   0.46153846  0.46153846  0.15384615       0.004
   0.00000000  0.00000000  0.23076923       0.001
   0.07692308  0.00000000  0.23076923       0.004
   0.15384615  0.00000000  0.23076923       0.004
   0.23076923  0.00000000  0.23076923       0.004
   0.30769231  0.00000000  0.23076923       0.004
   0.38461538  0.00000000  0.23076923       0.004
   0.46153846  0.00000000  0.23076923       0.004
   0.07692308  0.07692308  0.23076923       0.004
   0.15384615  0.07692308  0.23076923       0.007
   0.23076923  0.07692308  0.23076923       0.007
   0.30769231  0.07692308  0.23076923       0.007
   0.38461538  0.07692308  0.23076923       0.007
   0.46153846  0.07692308  0.23076923       0.007
   0.15384615  0.15384615  0.23076923       0.004
   0.23076923  0.15384615  0.23076923       0.007
   0.30769231  0.15384615  0.23076923       0.007
   0.38461538  0.15384615  0.23076923       0.007
   0.46153846  0.15384615  0.23076923       0.007
   0.23076923  0.23076923  0.23076923       0.004
   0.30769231  0.23076923  0.23076923       0.007
   0.38461538  0.23076923  0.23076923       0.007
   0.46153846  0.23076923  0.23076923       0.007
   0.30769231  0.30769231  0.23076923       0.004
   0.38461538  0.30769231  0.23076923       0.007
   0.46153846  0.30769231  0.23076923       0.007
   0.38461538  0.38461538  0.23076923       0.004
   0.46153846  0.38461538  0.23076923       0.007
   0.46153846  0.46153846  0.23076923       0.004
   0.00000000  0.00000000  0.30769231       0.001
   0.07692308  0.00000000  0.30769231       0.004
   0.15384615  0.00000000  0.30769231       0.004
   0.23076923  0.00000000  0.30769231       0.004
   0.30769231  0.00000000  0.30769231       0.004
   0.38461538  0.00000000  0.30769231       0.004
   0.46153846  0.00000000  0.30769231       0.004
   0.07692308  0.07692308  0.30769231       0.004
   0.15384615  0.07692308  0.30769231       0.007
   0.23076923  0.07692308  0.30769231       0.007
   0.30769231  0.07692308  0.30769231       0.007
   0.38461538  0.07692308  0.30769231       0.007
   0.46153846  0.07692308  0.30769231       0.007
   0.15384615  0.15384615  0.30769231       0.004
   0.23076923  0.15384615  0.30769231       0.007
   0.30769231  0.15384615  0.30769231       0.007
   0.38461538  0.15384615  0.30769231       0.007
   0.46153846  0.15384615  0.30769231       0.007
   0.23076923  0.23076923  0.30769231       0.004
   0.30769231  0.23076923  0.30769231       0.007
   0.38461538  0.23076923  0.30769231       0.007
   0.46153846  0.23076923  0.30769231       0.007
   0.30769231  0.30769231  0.30769231       0.004
   0.38461538  0.30769231  0.30769231       0.007
   0.46153846  0.30769231  0.30769231       0.007
   0.38461538  0.38461538  0.30769231       0.004
   0.46153846  0.38461538  0.30769231       0.007
   0.46153846  0.46153846  0.30769231       0.004
   0.00000000  0.00000000  0.38461538       0.001
   0.07692308  0.00000000  0.38461538       0.004
   0.15384615  0.00000000  0.38461538       0.004
   0.23076923  0.00000000  0.38461538       0.004
   0.30769231  0.00000000  0.38461538       0.004
   0.38461538  0.00000000  0.38461538       0.004
   0.46153846  0.00000000  0.38461538       0.004
   0.07692308  0.07692308  0.38461538       0.004
   0.15384615  0.07692308  0.38461538       0.007
   0.23076923  0.07692308  0.38461538       0.007
   0.30769231  0.07692308  0.38461538       0.007
   0.38461538  0.07692308  0.38461538       0.007
   0.46153846  0.07692308  0.38461538       0.007
   0.15384615  0.15384615  0.38461538       0.004
   0.23076923  0.15384615  0.38461538       0.007
   0.30769231  0.15384615  0.38461538       0.007
   0.38461538  0.15384615  0.38461538       0.007
   0.46153846  0.15384615  0.38461538       0.007
   0.23076923  0.23076923  0.38461538       0.004
   0.30769231  0.23076923  0.38461538       0.007
   0.38461538  0.23076923  0.38461538       0.007
   0.46153846  0.23076923  0.38461538       0.007
   0.30769231  0.30769231  0.38461538       0.004
   0.38461538  0.30769231  0.38461538       0.007
   0.46153846  0.30769231  0.38461538       0.007
   0.38461538  0.38461538  0.38461538       0.004
   0.46153846  0.38461538  0.38461538       0.007
   0.46153846  0.46153846  0.38461538       0.004
   0.00000000  0.00000000  0.46153846       0.001
   0.07692308  0.00000000  0.46153846       0.004
   0.15384615  0.00000000  0.46153846       0.004
   0.23076923  0.00000000  0.46153846       0.004
   0.30769231  0.00000000  0.46153846       0.004
   0.38461538  0.00000000  0.46153846       0.004
   0.46153846  0.00000000  0.46153846       0.004
   0.07692308  0.07692308  0.46153846       0.004
   0.15384615  0.07692308  0.46153846       0.007
   0.23076923  0.07692308  0.46153846       0.007
   0.30769231  0.07692308  0.46153846       0.007
   0.38461538  0.07692308  0.46153846       0.007
   0.46153846  0.07692308  0.46153846       0.007
   0.15384615  0.15384615  0.46153846       0.004
   0.23076923  0.15384615  0.46153846       0.007
   0.30769231  0.15384615  0.46153846       0.007
   0.38461538  0.15384615  0.46153846       0.007
   0.46153846  0.15384615  0.46153846       0.007
   0.23076923  0.23076923  0.46153846       0.004
   0.30769231  0.23076923  0.46153846       0.007
   0.38461538  0.23076923  0.46153846       0.007
   0.46153846  0.23076923  0.46153846       0.007
   0.30769231  0.30769231  0.46153846       0.004
   0.38461538  0.30769231  0.46153846       0.007
   0.46153846  0.30769231  0.46153846       0.007
   0.38461538  0.38461538  0.46153846       0.004
   0.46153846  0.38461538  0.46153846       0.007
   0.46153846  0.46153846  0.46153846       0.004
 
 position of ions in fractional coordinates (direct lattice) 
   0.00000000  0.00000000  0.00887655
   0.50000000  0.50000000  0.50174911
   0.50000000  0.50000000  0.01322350
   0.00000000  0.50000000  0.51002542
   0.50000000  0.00000000  0.51002542
 
 position of ions in cartesian coordinates  (Angst):
   0.00000000  0.00000000  0.03518190
   1.96938306  1.96938306  1.98866496
   1.96938306  1.96938306  0.05241089
   0.00000000  1.96938306  2.02146779
   1.96938306  0.00000000  2.02146779
 


--------------------------------------------------------------------------------------------------------


 k-point  1 :   0.0000 0.0000 0.0000  plane waves:    1671
 k-point  2 :   0.0769 0.0000 0.0000  plane waves:    1679
 k-point  3 :   0.1538 0.0000 0.0000  plane waves:    1665
 k-point  4 :   0.2308 0.0000 0.0000  plane waves:    1671
 k-point  5 :   0.3077 0.0000 0.0000  plane waves:    1667
 k-point  6 :   0.3846 0.0000 0.0000  plane waves:    1650
 k-point  7 :   0.4615 0.0000 0.0000  plane waves:    1658
 k-point  8 :   0.0769 0.0769 0.0000  plane waves:    1683
 k-point  9 :   0.1538 0.0769 0.0000  plane waves:    1670
 k-point 10 :   0.2308 0.0769 0.0000  plane waves:    1669
 k-point 11 :   0.3077 0.0769 0.0000  plane waves:    1660
 k-point 12 :   0.3846 0.0769 0.0000  plane waves:    1660
 k-point 13 :   0.4615 0.0769 0.0000  plane waves:    1658
 k-point 14 :   0.1538 0.1538 0.0000  plane waves:    1667
 k-point 15 :   0.2308 0.1538 0.0000  plane waves:    1672
 k-point 16 :   0.3077 0.1538 0.0000  plane waves:    1658
 k-point 17 :   0.3846 0.1538 0.0000  plane waves:    1655
 k-point 18 :   0.4615 0.1538 0.0000  plane waves:    1651
 k-point 19 :   0.2308 0.2308 0.0000  plane waves:    1660
 k-point 20 :   0.3077 0.2308 0.0000  plane waves:    1646
 k-point 21 :   0.3846 0.2308 0.0000  plane waves:    1651
 k-point 22 :   0.4615 0.2308 0.0000  plane waves:    1649
 k-point 23 :   0.3077 0.3077 0.0000  plane waves:    1636
 k-point 24 :   0.3846 0.3077 0.0000  plane waves:    1643
 k-point 25 :   0.4615 0.3077 0.0000  plane waves:    1652
 k-point 26 :   0.3846 0.3846 0.0000  plane waves:    1646
 k-point 27 :   0.4615 0.3846 0.0000  plane waves:    1655
 k-point 28 :   0.4615 0.4615 0.0000  plane waves:    1648
 k-point 29 :   0.0000 0.0000 0.0769  plane waves:    1675
 k-point 30 :   0.0769 0.0000 0.0769  plane waves:    1672
 k-point 31 :   0.1538 0.0000 0.0769  plane waves:    1670
 k-point 32 :   0.2308 0.0000 0.0769  plane waves:    1667
 k-point 33 :   0.3077 0.0000 0.0769  plane waves:    1668
 k-point 34 :   0.3846 0.0000 0.0769  plane waves:    1664
 k-point 35 :   0.4615 0.0000 0.0769  plane waves:    1663
 k-point 36 :   0.0769 0.0769 0.0769  plane waves:    1670
 k-point 37 :   0.1538 0.0769 0.0769  plane waves:    1670
 k-point 38 :   0.2308 0.0769 0.0769  plane waves:    1665
 k-point 39 :   0.3077 0.0769 0.0769  plane waves:    1664
 k-point 40 :   0.3846 0.0769 0.0769  plane waves:    1656
 k-point 41 :   0.4615 0.0769 0.0769  plane waves:    1656
 k-point 42 :   0.1538 0.1538 0.0769  plane waves:    1668
 k-point 43 :   0.2308 0.1538 0.0769  plane waves:    1663
 k-point 44 :   0.3077 0.1538 0.0769  plane waves:    1657
 k-point 45 :   0.3846 0.1538 0.0769  plane waves:    1656
 k-point 46 :   0.4615 0.1538 0.0769  plane waves:    1655
 k-point 47 :   0.2308 0.2308 0.0769  plane waves:    1654
 k-point 48 :   0.3077 0.2308 0.0769  plane waves:    1655
 k-point 49 :   0.3846 0.2308 0.0769  plane waves:    1654
 k-point 50 :   0.4615 0.2308 0.0769  plane waves:    1651
 k-point 51 :   0.3077 0.3077 0.0769  plane waves:    1647
 k-point 52 :   0.3846 0.3077 0.0769  plane waves:    1649
 k-point 53 :   0.4615 0.3077 0.0769  plane waves:    1651
 k-point 54 :   0.3846 0.3846 0.0769  plane waves:    1651
 k-point 55 :   0.4615 0.3846 0.0769  plane waves:    1654
 k-point 56 :   0.4615 0.4615 0.0769  plane waves:    1656
 k-point 57 :   0.0000 0.0000 0.1538  plane waves:    1667
 k-point 58 :   0.0769 0.0000 0.1538  plane waves:    1664
 k-point 59 :   0.1538 0.0000 0.1538  plane waves:    1659
 k-point 60 :   0.2308 0.0000 0.1538  plane waves:    1665
 k-point 61 :   0.3077 0.0000 0.1538  plane waves:    1662
 k-point 62 :   0.3846 0.0000 0.1538  plane waves:    1658
 k-point 63 :   0.4615 0.0000 0.1538  plane waves:    1655
 k-point 64 :   0.0769 0.0769 0.1538  plane waves:    1667
 k-point 65 :   0.1538 0.0769 0.1538  plane waves:    1666
 k-point 66 :   0.2308 0.0769 0.1538  plane waves:    1663
 k-point 67 :   0.3077 0.0769 0.1538  plane waves:    1655
 k-point 68 :   0.3846 0.0769 0.1538  plane waves:    1659
 k-point 69 :   0.4615 0.0769 0.1538  plane waves:    1652
 k-point 70 :   0.1538 0.1538 0.1538  plane waves:    1667
 k-point 71 :   0.2308 0.1538 0.1538  plane waves:    1656
 k-point 72 :   0.3077 0.1538 0.1538  plane waves:    1659
 k-point 73 :   0.3846 0.1538 0.1538  plane waves:    1659
 k-point 74 :   0.4615 0.1538 0.1538  plane waves:    1654
 k-point 75 :   0.2308 0.2308 0.1538  plane waves:    1655
 k-point 76 :   0.3077 0.2308 0.1538  plane waves:    1653
 k-point 77 :   0.3846 0.2308 0.1538  plane waves:    1651
 k-point 78 :   0.4615 0.2308 0.1538  plane waves:    1652
 k-point 79 :   0.3077 0.3077 0.1538  plane waves:    1652
 k-point 80 :   0.3846 0.3077 0.1538  plane waves:    1653
 k-point 81 :   0.4615 0.3077 0.1538  plane waves:    1656
 k-point 82 :   0.3846 0.3846 0.1538  plane waves:    1653
 k-point 83 :   0.4615 0.3846 0.1538  plane waves:    1660
 k-point 84 :   0.4615 0.4615 0.1538  plane waves:    1656
 k-point 85 :   0.0000 0.0000 0.2308  plane waves:    1671
 k-point 86 :   0.0769 0.0000 0.2308  plane waves:    1663
 k-point 87 :   0.1538 0.0000 0.2308  plane waves:    1664
 k-point 88 :   0.2308 0.0000 0.2308  plane waves:    1653
 k-point 89 :   0.3077 0.0000 0.2308  plane waves:    1647
 k-point 90 :   0.3846 0.0000 0.2308  plane waves:    1648
 k-point 91 :   0.4615 0.0000 0.2308  plane waves:    1650
 k-point 92 :   0.0769 0.0769 0.2308  plane waves:    1660
 k-point 93 :   0.1538 0.0769 0.2308  plane waves:    1662
 k-point 94 :   0.2308 0.0769 0.2308  plane waves:    1658
 k-point 95 :   0.3077 0.0769 0.2308  plane waves:    1653
 k-point 96 :   0.3846 0.0769 0.2308  plane waves:    1656
 k-point 97 :   0.4615 0.0769 0.2308  plane waves:    1652
 k-point 98 :   0.1538 0.1538 0.2308  plane waves:    1662
 k-point 99 :   0.2308 0.1538 0.2308  plane waves:    1658
 k-point ** :   0.3077 0.1538 0.2308  plane waves:    1658
 k-point ** :   0.3846 0.1538 0.2308  plane waves:    1648
 k-point ** :   0.4615 0.1538 0.2308  plane waves:    1652
 k-point ** :   0.2308 0.2308 0.2308  plane waves:    1653
 k-point ** :   0.3077 0.2308 0.2308  plane waves:    1652
 k-point ** :   0.3846 0.2308 0.2308  plane waves:    1662
 k-point ** :   0.4615 0.2308 0.2308  plane waves:    1664
 k-point ** :   0.3077 0.3077 0.2308  plane waves:    1653
 k-point ** :   0.3846 0.3077 0.2308  plane waves:    1652
 k-point ** :   0.4615 0.3077 0.2308  plane waves:    1659
 k-point ** :   0.3846 0.3846 0.2308  plane waves:    1651
 k-point ** :   0.4615 0.3846 0.2308  plane waves:    1656
 k-point ** :   0.4615 0.4615 0.2308  plane waves:    1652
 k-point ** :   0.0000 0.0000 0.3077  plane waves:    1663
 k-point ** :   0.0769 0.0000 0.3077  plane waves:    1663
 k-point ** :   0.1538 0.0000 0.3077  plane waves:    1657
 k-point ** :   0.2308 0.0000 0.3077  plane waves:    1650
 k-point ** :   0.3077 0.0000 0.3077  plane waves:    1639
 k-point ** :   0.3846 0.0000 0.3077  plane waves:    1647
 k-point ** :   0.4615 0.0000 0.3077  plane waves:    1660
 k-point ** :   0.0769 0.0769 0.3077  plane waves:    1661
 k-point ** :   0.1538 0.0769 0.3077  plane waves:    1662
 k-point ** :   0.2308 0.0769 0.3077  plane waves:    1657
 k-point ** :   0.3077 0.0769 0.3077  plane waves:    1647
 k-point ** :   0.3846 0.0769 0.3077  plane waves:    1650
 k-point ** :   0.4615 0.0769 0.3077  plane waves:    1655
 k-point ** :   0.1538 0.1538 0.3077  plane waves:    1659
 k-point ** :   0.2308 0.1538 0.3077  plane waves:    1650
 k-point ** :   0.3077 0.1538 0.3077  plane waves:    1647
 k-point ** :   0.3846 0.1538 0.3077  plane waves:    1651
 k-point ** :   0.4615 0.1538 0.3077  plane waves:    1651
 k-point ** :   0.2308 0.2308 0.3077  plane waves:    1654
 k-point ** :   0.3077 0.2308 0.3077  plane waves:    1656
 k-point ** :   0.3846 0.2308 0.3077  plane waves:    1653
 k-point ** :   0.4615 0.2308 0.3077  plane waves:    1662
 k-point ** :   0.3077 0.3077 0.3077  plane waves:    1655
 k-point ** :   0.3846 0.3077 0.3077  plane waves:    1661
 k-point ** :   0.4615 0.3077 0.3077  plane waves:    1664
 k-point ** :   0.3846 0.3846 0.3077  plane waves:    1660
 k-point ** :   0.4615 0.3846 0.3077  plane waves:    1658
 k-point ** :   0.4615 0.4615 0.3077  plane waves:    1649
 k-point ** :   0.0000 0.0000 0.3846  plane waves:    1662
 k-point ** :   0.0769 0.0000 0.3846  plane waves:    1658
 k-point ** :   0.1538 0.0000 0.3846  plane waves:    1657
 k-point ** :   0.2308 0.0000 0.3846  plane waves:    1645
 k-point ** :   0.3077 0.0000 0.3846  plane waves:    1638
 k-point ** :   0.3846 0.0000 0.3846  plane waves:    1649
 k-point ** :   0.4615 0.0000 0.3846  plane waves:    1653
 k-point ** :   0.0769 0.0769 0.3846  plane waves:    1654
 k-point ** :   0.1538 0.0769 0.3846  plane waves:    1656
 k-point ** :   0.2308 0.0769 0.3846  plane waves:    1652
 k-point ** :   0.3077 0.0769 0.3846  plane waves:    1647
 k-point ** :   0.3846 0.0769 0.3846  plane waves:    1646
 k-point ** :   0.4615 0.0769 0.3846  plane waves:    1654
 k-point ** :   0.1538 0.1538 0.3846  plane waves:    1652
 k-point ** :   0.2308 0.1538 0.3846  plane waves:    1646
 k-point ** :   0.3077 0.1538 0.3846  plane waves:    1648
 k-point ** :   0.3846 0.1538 0.3846  plane waves:    1652
 k-point ** :   0.4615 0.1538 0.3846  plane waves:    1657
 k-point ** :   0.2308 0.2308 0.3846  plane waves:    1652
 k-point ** :   0.3077 0.2308 0.3846  plane waves:    1653
 k-point ** :   0.3846 0.2308 0.3846  plane waves:    1654
 k-point ** :   0.4615 0.2308 0.3846  plane waves:    1653
 k-point ** :   0.3077 0.3077 0.3846  plane waves:    1657
 k-point ** :   0.3846 0.3077 0.3846  plane waves:    1656
 k-point ** :   0.4615 0.3077 0.3846  plane waves:    1652
 k-point ** :   0.3846 0.3846 0.3846  plane waves:    1658
 k-point ** :   0.4615 0.3846 0.3846  plane waves:    1651
 k-point ** :   0.4615 0.4615 0.3846  plane waves:    1650
 k-point ** :   0.0000 0.0000 0.4615  plane waves:    1654
 k-point ** :   0.0769 0.0000 0.4615  plane waves:    1658
 k-point ** :   0.1538 0.0000 0.4615  plane waves:    1651
 k-point ** :   0.2308 0.0000 0.4615  plane waves:    1650
 k-point ** :   0.3077 0.0000 0.4615  plane waves:    1655
 k-point ** :   0.3846 0.0000 0.4615  plane waves:    1653
 k-point ** :   0.4615 0.0000 0.4615  plane waves:    1652
 k-point ** :   0.0769 0.0769 0.4615  plane waves:    1650
 k-point ** :   0.1538 0.0769 0.4615  plane waves:    1648
 k-point ** :   0.2308 0.0769 0.4615  plane waves:    1651
 k-point ** :   0.3077 0.0769 0.4615  plane waves:    1654
 k-point ** :   0.3846 0.0769 0.4615  plane waves:    1654
 k-point ** :   0.4615 0.0769 0.4615  plane waves:    1653
 k-point ** :   0.1538 0.1538 0.4615  plane waves:    1648
 k-point ** :   0.2308 0.1538 0.4615  plane waves:    1651
 k-point ** :   0.3077 0.1538 0.4615  plane waves:    1652
 k-point ** :   0.3846 0.1538 0.4615  plane waves:    1654
 k-point ** :   0.4615 0.1538 0.4615  plane waves:    1661
 k-point ** :   0.2308 0.2308 0.4615  plane waves:    1662
 k-point ** :   0.3077 0.2308 0.4615  plane waves:    1661
 k-point ** :   0.3846 0.2308 0.4615  plane waves:    1652
 k-point ** :   0.4615 0.2308 0.4615  plane waves:    1651
 k-point ** :   0.3077 0.3077 0.4615  plane waves:    1654
 k-point ** :   0.3846 0.3077 0.4615  plane waves:    1654
 k-point ** :   0.4615 0.3077 0.4615  plane waves:    1646
 k-point ** :   0.3846 0.3846 0.4615  plane waves:    1652
 k-point ** :   0.4615 0.3846 0.4615  plane waves:    1654
 k-point ** :   0.4615 0.4615 0.4615  plane waves:    1646

 maximum and minimum number of plane-waves per node :       347      319

 maximum number of plane-waves:      1683
 maximum index in each direction: 
   IXMAX=    7   IYMAX=    7   IZMAX=    7
   IXMIN=   -7   IYMIN=   -7   IZMIN=   -7


 real space projection operators:
  total allocation   :       2258.75 KBytes
  max/ min on nodes  :        453.70        449.56


 parallel 3D FFT for wavefunctions:
    minimum data exchange during FFTs selected (reduces bandwidth)
 parallel 3D FFT for charge:
    minimum data exchange during FFTs selected (reduces bandwidth)


 total amount of memory used by VASP MPI-rank0    43090. kBytes
=======================================================================

   base      :      30000. kBytes
   nonlr-proj:       1292. kBytes
[...]
     24       7.7103      0.00000
     25      11.1820      0.00000
     26      11.5669      0.00000
     27      11.6021      0.00000
     28      13.3073      0.00000
     29      14.4379      0.00000
     30      17.6195      0.00000
     31      18.4443      0.00000
     32      18.7282      0.00000

 k-point   194 :       0.3846    0.3846    0.4615
  band No.  band energies     occupation 
      1     -56.8638      1.00000
      2     -56.8622      1.00000
      3     -56.8622      1.00000
      4     -22.0466      1.00000
      5     -14.3661      1.00000
      6     -14.2047      1.00000
      7     -14.1640      1.00000
      8      -7.6685      1.00000
      9      -7.5976      1.00000
     10      -7.4593      1.00000
     11      -2.6818      1.00000
     12      -0.6971      1.00000
     13      -0.6805      1.00000
     14       0.2925      1.00000
     15       0.5204      1.00000
     16       0.5811      1.00000
     17       3.1205      1.00000
     18       3.1651      1.00000
     19       3.3140      0.99302
     20       4.2695      0.00000
     21       4.3011      0.00000
     22       4.3497      0.00000
     23       7.3478      0.00000
     24       7.5378      0.00000
     25      11.1649      0.00000
     26      11.2183      0.00000
     27      11.3036      0.00000
     28      13.6968      0.00000
     29      14.1213      0.00000
     30      17.4474      0.00000
     31      18.4353      0.00000
     32      18.7631      0.00000

 k-point   195 :       0.4615    0.3846    0.4615
  band No.  band energies     occupation 
      1     -56.8638      1.00000
      2     -56.8623      1.00000
      3     -56.8622      1.00000
      4     -22.0371      1.00000
      5     -14.2817      1.00000
      6     -14.2102      1.00000
      7     -14.1829      1.00000
      8      -7.6978      1.00000
      9      -7.6721      1.00000
     10      -7.5981      1.00000
     11      -2.7942      1.00000
     12      -0.7374      1.00000
     13      -0.6887      1.00000
     14       0.3992      1.00000
     15       0.5227      1.00000
     16       0.5846      1.00000
     17       3.2288      1.00000
     18       3.2586      0.99997
     19       3.3826      0.69852
     20       4.3338      0.00000
     21       4.3669      0.00000
     22       4.3843      0.00000
     23       7.4462      0.00000
     24       7.7119      0.00000
     25      10.9311      0.00000
     26      11.0605      0.00000
     27      11.0922      0.00000
     28      13.8680      0.00000
     29      14.3169      0.00000
     30      17.4814      0.00000
     31      18.6375      0.00000
     32      19.0928      0.00000

 k-point   196 :       0.4615    0.4615    0.4615
  band No.  band energies     occupation 
      1     -56.8638      1.00000
      2     -56.8623      1.00000
      3     -56.8623      1.00000
      4     -22.0280      1.00000
      5     -14.2277      1.00000
      6     -14.1998      1.00000
      7     -14.1776      1.00000
      8      -7.7635      1.00000
      9      -7.7511      1.00000
     10      -7.7158      1.00000
     11      -2.9072      1.00000
     12      -0.7572      1.00000
     13      -0.7232      1.00000
     14       0.4946      1.00000
     15       0.5667      1.00000
     16       0.5909      1.00000
     17       3.3684      0.82125
     18       3.3822      0.70229
     19       3.4148      0.34784
     20       4.3912      0.00000
     21       4.4300      0.00000
     22       4.4367      0.00000
     23       7.6840      0.00000
     24       7.7705      0.00000
     25      10.7750      0.00000
     26      10.7880      0.00000
     27      10.8129      0.00000
     28      14.2307      0.00000
     29      14.2968      0.00000
     30      17.4622      0.00000
     31      18.7337      0.00000
     32      19.4003      0.00000


--------------------------------------------------------------------------------------------------------


 soft charge-density along one line, spin component           1
         0         1         2         3         4         5         6         7         8         9
 total charge-density along one line
 
 soft charge-density along one line, spin component           2
         0         1         2         3         4         5         6         7         8         9
 total charge-density along one line
 
 pseudopotential strength for first ion, spin component:           1
  0.968  -4.812   0.000   0.002   0.000   0.000   0.000  -0.000
 -4.812   0.393  -0.000  -0.001  -0.000   0.000  -0.001   0.000
  0.000  -0.000  -7.690  -0.000   0.000   4.510  -0.000   0.000
  0.002  -0.001  -0.000  -7.689  -0.000  -0.000   4.510  -0.000
  0.000  -0.000   0.000  -0.000  -7.690   0.000  -0.000   4.510
  0.000   0.000   4.510  -0.000   0.000   7.343   0.000  -0.000
  0.000  -0.001  -0.000   4.510  -0.000   0.000   7.342   0.000
 -0.000   0.000   0.000  -0.000   4.510  -0.000   0.000   7.343
  0.000  -0.000  -0.000  -0.000  -0.000  -0.000  -0.000  -0.000
 -0.000   0.000   0.001   0.000  -0.000  -0.000   0.000  -0.000
  0.000  -0.000   0.000   0.001   0.000   0.000  -0.000   0.000
 -0.000   0.000  -0.000   0.000   0.001  -0.000   0.000  -0.000
  0.000  -0.000  -0.000   0.000   0.000  -0.000   0.000   0.000
  0.000  -0.000  -0.000  -0.000  -0.000  -0.000  -0.000  -0.000
 -0.000   0.000   0.001   0.000  -0.000  -0.000   0.000  -0.000
  0.000  -0.000   0.000   0.001   0.000   0.000  -0.000   0.000
 -0.000   0.000  -0.000   0.000   0.001  -0.000   0.000  -0.000
  0.000  -0.000  -0.000   0.000   0.000  -0.000   0.000   0.000
 pseudopotential strength for first ion, spin component:           2
  0.924  -4.794   0.000   0.002   0.000   0.000   0.000  -0.000
 -4.794   0.388  -0.000  -0.001  -0.000   0.000  -0.000   0.000
  0.000  -0.000  -7.711  -0.000   0.000   4.514  -0.000   0.000
  0.002  -0.001  -0.000  -7.709  -0.000  -0.000   4.514  -0.000
  0.000  -0.000   0.000  -0.000  -7.711   0.000  -0.000   4.514
  0.000   0.000   4.514  -0.000   0.000   7.361   0.000  -0.000
  0.000  -0.000  -0.000   4.514  -0.000   0.000   7.360   0.000
 -0.000   0.000   0.000  -0.000   4.514  -0.000   0.000   7.361
  0.000  -0.000  -0.000  -0.000  -0.000  -0.000  -0.000  -0.000
 -0.000   0.000   0.001   0.000  -0.000  -0.000   0.000  -0.000
  0.001  -0.000   0.000  -0.001   0.000   0.000   0.000   0.000
 -0.000   0.000  -0.000   0.000   0.001  -0.000   0.000  -0.000
  0.000  -0.000  -0.000   0.000  -0.000  -0.000   0.000   0.000
  0.000  -0.000  -0.000  -0.000  -0.000  -0.000  -0.000  -0.000
 -0.000   0.000   0.002   0.000  -0.000  -0.001   0.000  -0.000
  0.001  -0.000   0.000  -0.001   0.000   0.000   0.001   0.000
 -0.000   0.000  -0.000   0.000   0.002  -0.000   0.000  -0.001
  0.000  -0.000  -0.000   0.000   0.000  -0.000   0.000   0.000
 total augmentation occupancy for first ion, spin component:           1
  2.017   0.042   0.000   0.000   0.000   0.000   0.000   0.000   0.000   0.000  -0.000   0.000   0.000   0.000  -0.000   0.000
  0.042   0.389   0.000   0.003   0.000   0.000  -0.000   0.000   0.000   0.000  -0.008   0.000   0.000   0.000   0.000   0.004
  0.000   0.000   2.024   0.000   0.000  -0.009  -0.000   0.000   0.000   0.005   0.000   0.000   0.000   0.000  -0.002   0.000
  0.000   0.003   0.000   2.024   0.000   0.000  -0.009   0.000   0.000   0.000   0.000   0.000   0.000   0.000   0.000   0.000
  0.000   0.000   0.000   0.000   2.024   0.000   0.000  -0.009   0.000   0.000   0.000   0.005   0.000   0.000   0.000   0.000
  0.000  -0.000  -0.009   0.000   0.000   0.010   0.000   0.000   0.000  -0.001  -0.000   0.000   0.000   0.000   0.000   0.000
  0.000  -0.000   0.000  -0.009   0.000   0.000   0.010   0.000   0.000   0.000  -0.000   0.000   0.000   0.000   0.000   0.000
  0.000   0.000   0.000   0.000  -0.009   0.000   0.000   0.010   0.000   0.000   0.000  -0.001   0.000   0.000   0.000   0.000
  0.000   0.000   0.000   0.000   0.000   0.000   0.000   0.000   2.935   0.000   0.000   0.000   0.000  -1.573   0.000   0.000
  0.000   0.000   0.005   0.000  -0.000  -0.001   0.000   0.000   0.000   2.863   0.000   0.000   0.000   0.000  -1.535   0.000
 -0.000  -0.008   0.000   0.000   0.000  -0.000  -0.000  -0.000   0.000   0.000   1.956   0.000   0.000   0.000   0.000  -1.033
  0.000   0.000   0.000   0.000   0.005   0.000   0.000  -0.001  -0.000   0.000   0.000   2.863   0.000  -0.000   0.000   0.000
  0.000   0.000   0.000   0.000   0.000   0.000   0.000   0.000   0.000   0.000   0.000   0.000   1.911   0.000   0.000   0.000
  0.000   0.000   0.000   0.000   0.000   0.000   0.000   0.000  -1.573   0.000   0.000  -0.000   0.000   0.845   0.000   0.000
 -0.000   0.000  -0.002   0.000   0.000   0.000   0.000   0.000   0.000  -1.535   0.000   0.000   0.000   0.000   0.825   0.000
  0.000   0.004   0.000   0.000   0.000  -0.000   0.000   0.000   0.000   0.000  -1.033   0.000   0.000   0.000   0.000   0.547
  0.000   0.000   0.000   0.000  -0.002   0.000   0.000   0.000  -0.000   0.000   0.000  -1.535   0.000   0.000   0.000   0.000
  0.000   0.000  -0.000   0.000   0.000   0.000   0.000   0.000   0.000   0.000   0.000   0.000  -1.009   0.000   0.000   0.000
 total augmentation occupancy for first ion, spin component:           2
  0.001   0.000   0.000  -0.000   0.000   0.000   0.000   0.000   0.000  -0.000   0.001   0.000   0.000   0.000   0.000  -0.000
  0.000   0.001   0.000   0.000   0.000   0.000  -0.000   0.000   0.000   0.000   0.000   0.000   0.000   0.000   0.000  -0.000
  0.000   0.000   0.006   0.000   0.000  -0.002   0.000   0.000   0.000   0.000  -0.000   0.000   0.000   0.000  -0.000   0.000
 -0.000   0.000   0.000   0.006   0.000   0.000  -0.002   0.000   0.000   0.000   0.002   0.000   0.000   0.000   0.000  -0.001
  0.000   0.000   0.000   0.000   0.006   0.000   0.000  -0.002   0.000  -0.000   0.000   0.000   0.000  -0.000  -0.000   0.000
  0.000   0.000  -0.002   0.000   0.000   0.000   0.000   0.000   0.000   0.000  -0.000   0.000   0.000   0.000   0.000   0.000
  0.000  -0.000   0.000  -0.002   0.000   0.000   0.000   0.000   0.000   0.000  -0.001   0.000   0.000   0.000   0.000   0.000
  0.000   0.000   0.000   0.000  -0.002   0.000   0.000   0.000   0.000  -0.000   0.000   0.000   0.000   0.000   0.000   0.000
  0.000   0.000   0.000   0.000   0.000   0.000   0.000   0.000   0.008   0.000   0.000   0.000   0.000  -0.009   0.000   0.000
 -0.000   0.000   0.000   0.000  -0.000   0.000   0.000  -0.000   0.000   0.004   0.000   0.000   0.000   0.000  -0.006   0.000
  0.001   0.000  -0.000   0.002   0.000   0.000  -0.001   0.000   0.000   0.000   0.041   0.000   0.000   0.000   0.000  -0.026
  0.000   0.000   0.000   0.000   0.000   0.000   0.000   0.000   0.000   0.000   0.000   0.004   0.000   0.000   0.000   0.000
  0.000   0.000   0.000   0.000   0.000  -0.000   0.000   0.000  -0.000   0.000   0.000   0.000   0.044  -0.000   0.000   0.000
  0.000   0.000   0.000   0.000  -0.000   0.000   0.000   0.000  -0.009   0.000   0.000   0.000   0.000   0.007   0.000   0.000
  0.000   0.000  -0.000   0.000  -0.000   0.000   0.000   0.000   0.000  -0.006   0.000   0.000   0.000   0.000   0.005   0.000
 -0.000  -0.000   0.000  -0.001   0.000  -0.000   0.000   0.000   0.000   0.000  -0.026   0.000   0.000   0.000   0.000   0.016
  0.000   0.000   0.000   0.000  -0.000   0.000   0.000   0.000   0.000   0.000   0.000  -0.006  -0.000   0.000   0.000   0.000
  0.000   0.000  -0.000   0.000   0.000   0.000   0.000   0.000   0.000   0.000   0.000  -0.000  -0.027  -0.000   0.000   0.000


------------------------ aborting loop because EDIFF is reached ----------------------------------------


 


 total charge     
 
# of ion       s       p       d       tot
------------------------------------------
    1        2.011   5.656   0.311   7.977
    2        0.406   6.526   6.880  13.812
    3        1.578   3.424   0.000   5.002
    4        1.581   3.253   0.000   4.835
    5        1.575   3.596   0.000   5.171
--------------------------------------------------
tot          7.151  22.455   7.190  36.797
 


 magnetization (x)
 
# of ion       s       p       d       tot
------------------------------------------
    1        0.001   0.020  -0.004   0.017
    2        0.016   0.030   2.972   3.018
    3        0.015   0.317   0.000   0.332
    4        0.009   0.424   0.000   0.433
    5        0.022   0.208   0.000   0.230
--------------------------------------------------
tot          0.064   0.998   2.968   4.030
 
    CHARGE:  cpu time    0.1025: real time    0.1026
    FORLOC:  cpu time    0.0011: real time    0.0011
    FORNL :  cpu time    0.6789: real time    0.6803
    STRESS:  cpu time   12.1204: real time   12.1432
    FORCOR:  cpu time    0.0195: real time    0.0195
    FORHAR:  cpu time    0.0020: real time    0.0024
    MIXING:  cpu time    0.0008: real time    0.0008
    OFIELD:  cpu time    0.0000: real time    0.0000

  FORCE on cell =-STRESS in cart. coord.  units (eV):
  Direction    XX          YY          ZZ          XY          YZ          ZX
  --------------------------------------------------------------------------------------
  Alpha Z   305.07622   305.07622   305.07622
  Ewald   -1123.03732 -1123.03732 -1137.39088     0.00000    -0.00000     0.00000
  Hartree   473.52544   473.52544   463.70228    -0.00000    -0.00000    -0.00000
  E(xc)    -236.96232  -236.59289  -236.77901    -0.04718    -0.05334    -0.04426
  Local    -117.98164  -117.98164   -93.87851     0.00000     0.00000     0.00000
  n-local  -131.48872  -130.17723  -130.90917    -0.66510    -0.54248    -0.67892
  augment   173.28276   173.28276   173.37718    -0.00000     0.00000     0.00000
  Kinetic   650.53183   662.71455   656.69110    -1.66970    -1.88577    -1.55058
  Fock        0.00000     0.00000     0.00000     0.00000     0.00000     0.00000
  -------------------------------------------------------------------------------------
  Total      -0.12193    -0.12193    -0.11078     0.00000     0.00000     0.00000
  in kB      -3.17010    -3.17010    -2.88012     0.00000     0.00000     0.00000
  external pressure =       -3.07 kB  Pullay stress =        0.00 kB


 VOLUME and BASIS-vectors are now :
 -----------------------------------------------------------------------------
  energy-cutoff  :      520.00
  volume of cell :       61.63
      direct lattice vectors                 reciprocal lattice vectors
     3.941799329  0.000000000  0.000000000     0.253691250  0.000000000  0.000000000
     0.000000000  3.941799329  0.000000000     0.000000000  0.253691250 -0.000000000
     0.000000000  0.000000000  3.966176248     0.000000000 -0.000000000  0.252132013

  length of vectors
     3.941799329  3.941799329  3.966176248     0.253691250  0.253691250  0.252132013


 FORCES acting on ions
    electron-ion (+dipol)            ewald-force                    non-local-force                 convergence-correction
 -----------------------------------------------------------------------------------------------
   0.100E-14 -.978E-14 0.345E+01   -.802E-14 0.139E-13 -.356E+01   0.000E+00 0.572E-20 0.855E-01   -.323E-13 -.107E-13 0.209E-03
   0.617E-12 0.635E-11 -.210E+02   -.361E-14 -.295E-13 0.196E+02   0.000E+00 0.948E-19 0.142E+01   0.514E-12 -.516E-12 -.136E-02
   0.129E-12 0.207E-11 0.292E+02   0.695E-14 -.653E-14 -.313E+02   0.000E+00 0.187E-17 0.200E+01   0.109E-12 0.119E-12 0.321E-02
   0.197E-13 0.201E-12 -.735E+01   0.149E-13 -.597E-14 0.762E+01   0.000E+00 -.141E-18 -.293E+00   -.517E-13 -.908E-13 -.127E-02
   0.139E-12 -.288E-13 -.735E+01   -.932E-14 0.267E-13 0.762E+01   0.217E-18 -.440E-18 -.293E+00   0.112E-12 0.385E-12 -.127E-02
 -----------------------------------------------------------------------------------------------
   0.906E-12 0.858E-11 -.301E+01   0.895E-15 -.134E-14 0.355E-14   0.217E-18 0.139E-17 0.291E+01   0.652E-12 -.114E-12 -.473E-03
 
 
 POSITION                                       TOTAL-FORCE (eV/Angst)
 -----------------------------------------------------------------------------------
     -0.00000      0.00000      0.03442        -0.000000     -0.000000     -0.015527
      1.97090      1.97090      1.99069         0.000000      0.000000      0.029703
      1.97090      1.97090      0.05086         0.000000     -0.000000     -0.015669
     -0.00000      1.97090      2.02371         0.000000      0.000000      0.000747
      1.97090      0.00000      2.02371         0.000000      0.000000      0.000747
 -----------------------------------------------------------------------------------
    total drift:                                0.000000      0.000000     -0.101126


--------------------------------------------------------------------------------------------------------



  FREE ENERGIE OF THE ION-ELECTRON SYSTEM (eV)
  ---------------------------------------------------
  free  energy   TOTEN  =       -82.66089240 eV

  energy  without entropy=      -82.65838522  energy(sigma->0) =      -82.65963881
 
 d Force = 0.8120702E-04[ 0.580E-04, 0.104E-03]  d Energy = 0.2146070E-03-0.133E-03
 d Force = 0.8117388E-01[ 0.784E-01, 0.839E-01]  d Ewald  =-0.2426599E+01 0.251E+01


--------------------------------------------------------------------------------------------------------


    POTLOK:  cpu time    0.8647: real time    0.8665


--------------------------------------------------------------------------------------------------------


 Steepest descent step on ions:
 trial-energy change:   -0.000215  1 .order   -0.000035   -0.000276    0.000206
  (g-gl).g = 0.276E-03      g.g   = 0.276E-03  gl.gl    = 0.000E+00
 g(Force)  = 0.104E-03   g(Stress)= 0.171E-03 ortho     = 0.000E+00
 gamma     =   0.00000
 trial     =   1.00000
 opt step  =   0.85319  (harmonic =   0.57287) maximal distance =0.00072977
 next E    =   -82.660907   (d E  =  -0.00023)


--------------------------------------------------------------------------------------------------------


  
 reached required accuracy - stopping structural energy minimisation
     LOOP+:  cpu time   92.8017: real time   92.9972
    4ORBIT:  cpu time    0.0000: real time    0.0000
 


 total charge     
 
# of ion       s       p       d       tot
------------------------------------------
    1        2.011   5.656   0.311   7.977
    2        0.406   6.526   6.880  13.812
    3        1.578   3.424   0.000   5.002
    4        1.581   3.253   0.000   4.835
    5        1.575   3.596   0.000   5.171
--------------------------------------------------
tot          7.151  22.455   7.190  36.797
 


 magnetization (x)
 
# of ion       s       p       d       tot
------------------------------------------
    1        0.001   0.020  -0.004   0.017
    2        0.016   0.030   2.972   3.018
    3        0.015   0.317   0.000   0.332
    4        0.009   0.424   0.000   0.433
    5        0.022   0.208   0.000   0.230
--------------------------------------------------
tot          0.064   0.998   2.968   4.030
 

 total amount of memory used by VASP MPI-rank0    43090. kBytes
=======================================================================

   base      :      30000. kBytes
   nonlr-proj:       1292. kBytes
   fftplans  :        983. kBytes
   grid      :       1552. kBytes
   one-center:         31. kBytes
   wavefun   :       9232. kBytes
 
  
  
 General timing and accounting informations for this job:
 ========================================================
  
                  Total CPU time used (sec):      408.065
                            User time (sec):      402.943
                          System time (sec):        5.122
                         Elapsed time (sec):      409.636
  
                   Maximum memory used (kb):      173672.
                   Average memory used (kb):           0.
  
                          Minor page faults:        88870
                          Major page faults:            0
                 Voluntary context switches:         5836
